# vtk DataFile Version 2.0
tracks
ASCII
DATASET POLYDATA
POINTS 12030 float
-0.0206 0.00100004 1e-05 -0.02058 0.00100004 1e-05 -0.02056 0.00100003 1e-05 -0.02054 0.00100002
1e-05 -0.02052 0.00100001 1e-05 -0.0205 0.001 1e-05 -0.0202034 0.0009998 1e-05
-0.0199069 0.000999311 1e-05 -0.0196103 0.000998549 1e-05 -0.0193138 0.000997513 1e-05 -0.0190172
0.0009962 1e-05 -0.0187133 0.000994768 1e-05 -0.0184094 0.000993412 1e-05 -0.0181054 0.000992136
1e-05 -0.0178015 0.000990938 1e-05 -0.0174976 0.000989819 1e-05 -0.0172058 0.000988841 1e-05
-0.016914 0.000987892 1e-05 -0.0166223 0.000987011 1e-05 -0.0163305 0.000986199 1e-05 -0.0160387
0.000985454 1e-05 -0.0157586 0.000984819 1e-05 -0.0154785 0.000984216 1e-05 -0.0151983 0.000983662
1e-05 -0.0149182 0.000983157 1e-05 -0.0146381 0.0009827 1e-05 -0.0143692 0.000982316 1e-05
-0.0141002 0.00098194 1e-05 -0.0138313 0.000981595 1e-05 -0.0135623 0.000981281 1e-05 -0.0132934
0.000980999 1e-05 -0.0130352 0.000980761 1e-05 -0.012777 0.000980536 1e-05 -0.0125189 0.000980332
1e-05 -0.0122607 0.000980152 1e-05 -0.0120025 0.000979993 1e-05 -0.0117546 0.000979862 1e-05
-0.0115068 0.000979746 1e-05 -0.0112589 0.000979645 1e-05 -0.0110111 0.00097956 1e-05 -0.0107632
0.000979492 1e-05 -0.0105252 0.000979437 1e-05 -0.0102873 0.000979394 1e-05 -0.0100493 0.000979363
1e-05 -0.00981134 0.000979342 1e-05 -0.00957337 0.000979332 1e-05 -0.00934491 0.000979327 1e-05
-0.00911645 0.000979333 1e-05 -0.008888 0.000979347 1e-05 -0.00865954 0.000979367 1e-05 -0.00843108
0.000979396 1e-05 -0.00821175 0.000979425 1e-05 -0.00799242 0.000979463 1e-05 -0.00777309 0.000979507
1e-05 -0.00755376 0.000979557 1e-05 -0.00733443 0.000979612 1e-05 -0.00712386 0.000979666 1e-05
-0.0069133 0.000979728 1e-05 -0.00670273 0.000979794 1e-05 -0.00649217 0.000979865 1e-05 -0.0062816
0.00097994 1e-05 -0.00607945 0.000980014 1e-05 -0.00587729 0.000980094 1e-05 -0.00567514 0.000980178
1e-05 -0.00547298 0.000980266 1e-05 -0.00527083 0.000980358 1e-05 -0.00507675 0.000980448 1e-05
-0.00488267 0.000980544 1e-05 -0.0046886 0.000980644 1e-05 -0.00449452 0.000980748 1e-05 -0.00430044
0.000980856 1e-05 -0.00411412 0.000980962 1e-05 -0.0039278 0.000981073 1e-05 -0.00374147 0.00098119
1e-05 -0.00355515 0.000981311 1e-05 -0.00336883 0.000981436 1e-05 -0.00318995 0.000981559 1e-05
-0.00301107 0.000981689 1e-05 -0.00283219 0.000981826 1e-05 -0.00265331 0.000981969 1e-05 -0.00247443
0.000982118 1e-05 -0.0023027 0.000982267 1e-05 -0.00213097 0.000982424 1e-05 -0.00195923 0.00098259
1e-05 -0.0017875 0.000982765 1e-05 -0.00161577 0.000982948 1e-05 -0.0014509 0.00098313 1e-05
-0.00128603 0.000983326 1e-05 -0.00112116 0.000983541 1e-05 -0.000956289 0.000983776 1e-05 -0.000791418
0.000984029 1e-05 -0.000633134 0.000984296 1e-05 -0.000474851 0.000984592 1e-05 -0.000316567 0.000984907
1e-05 -0.000158284 0.000985241 1e-05 0 0.000985594 1e-05 0.000105677 0.000985828 1e-05
0.000211355 0.00098608 1e-05 0.000317032 0.000986345 1e-05 0.000422709 0.000986625 1e-05 0.000528387
0.000986918 1e-05 0.000634886 0.000987219 1e-05 0.000741384 0.000987565 1e-05 0.000847882 0.000987934
1e-05 0.000954381 0.000988326 1e-05 0.00106088 0.000988741 1e-05 0.00116821 0.00098917 1e-05
0.00127554 0.000989646 1e-05 0.00138286 0.000990133 1e-05 0.00149019 0.000990631 1e-05 0.00159752
0.000991139 1e-05 0.00170568 0.000991625 1e-05 0.00181384 0.000992127 1e-05 0.00192201 0.000992619
1e-05 0.00203017 0.000993102 1e-05 0.00213833 0.000993576 1e-05 0.00224733 0.000994011 1e-05
0.00235633 0.000994451 1e-05 0.00246534 0.000994874 1e-05 0.00257434 0.00099528 1e-05 0.00268334
0.00099567 1e-05 0.00279319 0.000996018 1e-05 0.00290304 0.000996367 1e-05 0.00301289 0.000996698
1e-05 0.00312274 0.000997013 1e-05 0.00323259 0.000997311 1e-05 0.00334329 0.000997566 1e-05
0.003454 0.000997823 1e-05 0.0035647 0.000998064 1e-05 0.00367541 0.000998288 1e-05 0.00378611
0.000998495 1e-05 0.00389767 0.000998658 1e-05 0.00400924 0.000998825 1e-05 0.0041208 0.000998976
1e-05 0.00423237 0.00099911 1e-05 0.00434393 0.000999228 1e-05 0.00445636 0.000999299 1e-05
0.00456879 0.000999378 1e-05 0.00468123 0.000999443 1e-05 0.00479366 0.000999491 1e-05 0.00490609
0.000999522 1e-05 0.0050194 0.000999505 1e-05 0.0051327 0.000999499 1e-05 0.00524601 0.00099948
1e-05 0.00535931 0.000999446 1e-05 0.00547262 0.000999392 1e-05 0.00558681 0.00099929 1e-05
0.005701 0.0009992 1e-05 0.00581518 0.000999101 1e-05 0.00592937 0.000998987 1e-05 0.00604356
0.000998851 1e-05 0.00615863 0.000998669 1e-05 0.00627371 0.000998498 1e-05 0.00638878 0.000998321
1e-05 0.00650386 0.000998131 1e-05 0.00661893 0.000997917 1e-05 0.0067349 0.000997659 1e-05
0.00685087 0.000997412 1e-05 0.00696684 0.000997162 1e-05 0.00708281 0.000996898 1e-05 0.00719878
0.000996611 1e-05 0.00731565 0.000996282 1e-05 0.00743252 0.000995963 1e-05 0.00754939 0.000995641
1e-05 0.00766626 0.000995307 1e-05 0.00778313 0.000994949 1e-05 0.00790091 0.000994553 1e-05
0.00801869 0.000994164 1e-05 0.00813647 0.000993774 1e-05 0.00825425 0.000993371 1e-05 0.00837203
0.000992945 1e-05 0.00849073 0.000992484 1e-05 0.00860942 0.000992027 1e-05 0.00872812 0.00099157
1e-05 0.00884681 0.0009911 1e-05 0.00896551 0.000990608 1e-05 0.00908513 0.000990084 1e-05
0.00920475 0.000989562 1e-05 0.00932436 0.000989039 1e-05 0.00944398 0.000988505 1e-05 0.0095636
0.000987948 1e-05 0.00968414 0.000987363 1e-05 0.00980468 0.000986778 1e-05 0.00992522 0.000986191
1e-05 0.0100458 0.000985594 1e-05 0.0101663 0.000984976 1e-05 0.0102878 0.000984332 1e-05
0.0104093 0.000983685 1e-05 0.0105308 0.000983036 1e-05 0.0106523 0.000982376 1e-05 0.0107738
0.000981698 1e-05 0.0108962 0.000980996 1e-05 0.0110186 0.00098029 1e-05 0.0111411 0.00097958
1e-05 0.0112635 0.000978858 1e-05 0.0113859 0.000978122 1e-05 0.0115093 0.000977365 1e-05
0.0116327 0.000976601 1e-05 0.011756 0.000975831 1e-05 0.0118794 0.00097505 1e-05 0.0120028
0.000974257 1e-05 0.0121271 0.000973446 1e-05 0.0122515 0.000972626 1e-05 0.0123758 0.000971798
1e-05 0.0125002 0.00097096 1e-05 0.0126245 0.000970112 1e-05 0.0127498 0.000969248 1e-05
0.0128751 0.000968374 1e-05 0.0130005 0.000967489 1e-05 0.0131258 0.000966595 1e-05 0.0132511
0.000965694 1e-05 0.0133774 0.000964779 1e-05 0.0135037 0.000963851 1e-05 0.0136299 0.000962912
1e-05 0.0137562 0.000961964 1e-05 0.0138825 0.000961011 1e-05 0.0140098 0.000960045 1e-05
0.014137 0.000959066 1e-05 0.0142643 0.000958074 1e-05 0.0143915 0.000957074 1e-05 0.0145188
0.00095607 1e-05 0.0146471 0.000955054 1e-05 0.0147753 0.000954024 1e-05 0.0149036 0.00095298
1e-05 0.0150318 0.000951928 1e-05 0.0151601 0.000950875 1e-05 0.0152893 0.00094981 1e-05
0.0154186 0.000948731 1e-05 0.0155478 0.000947636 1e-05 0.0156771 0.000946535 1e-05 0.0158063
0.000945433 1e-05 0.0159366 0.000944321 1e-05 0.0160668 0.000943193 1e-05 0.0161971 0.00094205
1e-05 0.0163273 0.000940901 1e-05 0.0164576 0.00093975 1e-05 0.0165889 0.000938591 1e-05
0.0167201 0.000937415 1e-05 0.0168514 0.000936226 1e-05 0.0169826 0.00093503 1e-05 0.0171139
0.000933832 1e-05 0.0172462 0.000932627 1e-05 0.0173785 0.000931403 1e-05 0.0175108 0.000930167
1e-05 0.0176431 0.000928925 1e-05 0.0177754 0.000927681 1e-05 0.0179087 0.00092643 1e-05
0.018042 0.00092516 1e-05 0.0181754 0.000923879 1e-05 0.0183087 0.000922592 1e-05 0.018442
0.000921302 1e-05 0.0185763 0.000920005 1e-05 0.0187107 0.000918689 1e-05 0.018845 0.000917363
1e-05 0.0189794 0.000916031 1e-05 0.0191137 0.000914696 1e-05 0.0192491 0.000913353 1e-05
0.0193845 0.000911991 1e-05 0.0195199 0.00091062 1e-05 0.0196553 0.000909244 1e-05 0.0197907
0.000907863 1e-05 0.0199272 0.000906475 1e-05 0.0200636 0.000905067 1e-05 0.0202001 0.000903652
1e-05 0.0203365 0.000902232 1e-05 0.020473 0.000900805 1e-05 0.0206105 0.000899372 1e-05
0.020748 0.000897919 1e-05 0.0208856 0.000896461 1e-05 0.0210231 0.000894997 1e-05 0.0211606
0.000893526 1e-05 0.0212992 0.000892047 1e-05 0.0214378 0.000890551 1e-05 0.0215763 0.000889049
1e-05 0.0217149 0.000887541 1e-05 0.0218535 0.000886026 1e-05 0.0219931 0.000884502 1e-05
0.0221328 0.000882961 1e-05 0.0222724 0.000881415 1e-05 0.0224121 0.000879863 1e-05 0.0225517
0.000878304 1e-05 0.0226925 0.000876733 1e-05 0.0228332 0.000875148 1e-05 0.022974 0.000873556
1e-05 0.0231147 0.000871959 1e-05 0.0232555 0.000870355 1e-05 0.0233973 0.000868737 1e-05
0.0235392 0.000867107 1e-05 0.023681 0.00086547 1e-05 0.0238229 0.000863828 1e-05 0.0239647
0.000862178 1e-05 0.0241076 0.000860512 1e-05 0.0242506 0.000858836 1e-05 0.0243935 0.000857154
1e-05 0.0245365 0.000855465 1e-05 0.0246794 0.00085377 1e-05 0.0246983 0.000853545 1e-05
0.0247171 0.000853321 1e-05 0.024736 0.000853096 1e-05 0.0247548 0.000852871 1e-05 0.0247736
0.000852647 1e-05 0.0248988 0.000851152 1e-05 0.025024 0.000849652 1e-05 0.0251492 0.000848147
1e-05 0.0252744 0.000846637 1e-05 0.0253996 0.000845121 1e-05 0.0255448 0.00084336 1e-05
0.02569 0.00084159 1e-05 0.0258351 0.000839812 1e-05 0.0259803 0.000838028 1e-05 0.0261255
0.000836236 1e-05 0.0262718 0.000834429 1e-05 0.0264181 0.000832609 1e-05 0.0265644 0.000830782
1e-05 0.0267107 0.000828947 1e-05 0.026857 0.000827105 1e-05 0.0270044 0.000825249 1e-05
0.0271519 0.000823378 1e-05 0.0272993 0.0008215 1e-05 0.0274468 0.000819613 1e-05 0.0275942
0.000817719 1e-05 0.0277428 0.000815813 1e-05 0.0278914 0.00081389 1e-05 0.0280399 0.000811958
1e-05 0.0281885 0.000810018 1e-05 0.0283371 0.00080807 1e-05 0.0284868 0.000806113 1e-05
0.0286366 0.000804135 1e-05 0.0287863 0.000802148 1e-05 0.0289361 0.000800153 1e-05 0.0290858
0.000798149 1e-05 0.0292367 0.000796138 1e-05 0.0293876 0.000794103 1e-05 0.0295385 0.000792059
1e-05 0.0296894 0.000790006 1e-05 0.0298403 0.000787945 1e-05 0.0299924 0.000785878 1e-05
0.0301445 0.000783786 1e-05 0.0302965 0.000781683 1e-05 0.0304486 0.00077957 1e-05 0.0306007
0.000777452 1e-05 0.030754 0.000775326 1e-05 0.0309072 0.000773175 1e-05 0.0310605 0.000771009
1e-05 0.0312137 0.000768834 1e-05 0.031367 0.000766655 1e-05 0.0315215 0.000764467 1e-05
[...]
POINT_DATA 12030
FIELD attributes 4
age 1 12030 float
-1.26124e-05 -1.0089e-05 -7.56613e-06 -5.04366e-06 -2.52161e-06 0 3.73905e-05 7.47797e-05 0.000112174 0.000149576 0.000186987
0.000225357 0.0002637 0.000302044 0.000340387 0.00037873 0.000415564 0.000452357 0.000489138 0.000525908 0.000562665
0.000597969 0.000633228 0.000668473 0.000703705 0.000738923 0.000772753 0.00080654 0.000840316 0.000874081 0.000907835
0.00094026 0.000972645 0.00100502 0.00103739 0.00106975 0.00110084 0.00113189 0.00116294 0.00119398 0.00122502
0.00125484 0.00128463 0.00131441 0.00134419 0.00137396 0.00140257 0.00143115 0.00145972 0.00148829 0.00151686
0.00154432 0.00157174 0.00159916 0.00162658 0.001654 0.00168035 0.00170667 0.00173298 0.0017593 0.00178562
0.00181091 0.00183617 0.00186143 0.0018867 0.00191196 0.00193624 0.00196049 0.00198474 0.00200899 0.00203325
0.00205655 0.00207984 0.00210312 0.00212641 0.00214969 0.00217207 0.00219443 0.00221679 0.00223914 0.0022615
0.00228299 0.00230446 0.00232593 0.0023474 0.00236887 0.0023895 0.00241012 0.00243074 0.00245136 0.00247198
0.00249179 0.00251159 0.00253139 0.00255119 0.00257098 0.00258421 0.00259743 0.00261065 0.00262387 0.00263709
0.00265042 0.00266375 0.00267707 0.00269039 0.00270371 0.00271715 0.00273057 0.00274399 0.00275741 0.00277083
0.00278437 0.00279788 0.0028114 0.00282491 0.00283842 0.00285207 0.00286568 0.0028793 0.00289292 0.00290654
0.00292031 0.00293404 0.00294777 0.00296151 0.00297525 0.00298915 0.00300301 0.00301688 0.00303074 0.00304462
0.00305866 0.00307266 0.00308666 0.00310067 0.00311468 0.00312888 0.00314302 0.00315717 0.00317133 0.0031855
0.00319986 0.00321416 0.00322847 0.00324278 0.00325712 0.00327165 0.00328612 0.00330059 0.00331507 0.00332958
0.00334429 0.00335894 0.00337358 0.00338823 0.00340292 0.00341781 0.00343265 0.00344747 0.0034623 0.00347718
0.00349226 0.00350728 0.00352229 0.00353731 0.00355238 0.00356765 0.00358287 0.00359807 0.00361328 0.00362855
0.00364402 0.00365944 0.00367483 0.00369024 0.00370571 0.00372138 0.00373701 0.0037526 0.00376821 0.00378388
0.00379976 0.00381559 0.00383139 0.0038472 0.00386309 0.00387918 0.00389523 0.00391123 0.00392726 0.00394336
0.00395966 0.00397592 0.00399214 0.00400839 0.0040247 0.00404121 0.00405769 0.00407414 0.0040906 0.00410713
0.00412386 0.00414056 0.00415723 0.00417392 0.00419067 0.00420762 0.00422454 0.00424144 0.00425835 0.00427533
0.0042925 0.00430964 0.00432676 0.0043439 0.0043611 0.00437849 0.00439586 0.00441321 0.00443057 0.004448
0.00446561 0.00448321 0.00450079 0.00451839 0.00453604 0.00455388 0.0045717 0.00458951 0.00460733 0.00462521
0.00464327 0.00466133 0.00467937 0.00469744 0.00471554 0.00473383 0.00475212 0.0047704 0.00478869 0.00480702
0.00482555 0.00484406 0.00486258 0.00488111 0.00489968 0.00491843 0.00493718 0.00495593 0.00497469 0.00499349
0.00501247 0.00503144 0.00505043 0.00506943 0.00508845 0.00510766 0.00512687 0.00514609 0.00516533 0.00518459
0.00520403 0.00522348 0.00524293 0.00526241 0.0052819 0.00530157 0.00532125 0.00534095 0.00536066 0.00538038
0.00540029 0.0054202 0.00544013 0.00546007 0.00548003 0.00550017 0.00552031 0.00554047 0.00556065 0.00558084
0.00560122 0.0056216 0.005642 0.00566242 0.00568285 0.00570346 0.00572408 0.00574471 0.00576536 0.00578603
0.00580687 0.00582773 0.0058486 0.00586948 0.00589038 0.00589314 0.0058959 0.00589866 0.00590142 0.00590417
0.0059225 0.00594083 0.00595918 0.00597754 0.00599592 0.00601723 0.00603857 0.00605991 0.00608128 0.00610265
0.00612421 0.00614578 0.00616737 0.00618897 0.00621058 0.00623238 0.00625419 0.00627602 0.00629786 0.00631971
0.00634175 0.0063638 0.00638586 0.00640794 0.00643004 0.00645232 0.00647461 0.00649692 0.00651924 0.00654158
0.00656409 0.00658662 0.00660917 0.00663174 0.00665431 0.00667707 0.00669985 0.00672264 0.00674545 0.00676827
0.00679127 0.00681429 0.00683732 0.00686037 0.00688343 0.00690668 0.00692994 0.00695322 0.00697651 0.00699982
0.0070233 0.00704681 0.00707033 0.00709387 0.00711741 0.00714115 0.0071649 0.00718867 0.00721246 0.00723626
0.00726024 0.00728423 0.00730825 0.00733228 0.00735632 0.00738055 0.00740479 0.00742905 0.00745333 0.00747761
0.00750209 0.00752659 0.00755111 0.00757564 0.00760017 0.0076249 0.00764965 0.00767441 0.00769919 0.00772398
0.00774895 0.00777395 0.00779897 0.007824 0.00784903 0.00787427 0.00789953 0.0079248 0.00795009 0.00797538
0.00800088 0.00802639 0.00805192 0.00807746 0.00810301 0.00812875 0.00815453 0.00818031 0.00820611 0.00823191
0.00825793 0.00828396 0.00831001 0.00833606 0.00836213 0.00838841 0.00841471 0.00844102 0.00846734 0.00849368
0.00852022 0.00854679 0.00857337 0.00859996 0.00862656 0.00865337 0.00868021 0.00870706 0.00873391 0.00876078
0.00878787 0.00881497 0.00884209 0.00886922 0.00889636 0.00892372 0.00895111 0.00897851 0.00900592 0.00903334
0.00905854 0.00908375 0.00910897 0.0091342 0.00915816 0.00916087 0.00916358 0.00916629 0.009169 0.00917171
0.00919965 0.00922759 0.00925555 0.00928353 0.00931152 0.00933974 0.00936798 0.00939624 0.0094245 0.00945279
0.0094813 0.00950984 0.00953839 0.00956695 0.00959553 0.00962435 0.00965318 0.00968204 0.00971091 0.0097398
0.00976891 0.00979805 0.00982721 0.00985639 0.00988558 0.00991501 0.00994446 0.00997393 0.0100034 0.0100329
0.0100627 0.0100924 0.0101222 0.010152 0.0101819 0.0102119 0.010242 0.0102721 0.0103023 0.0103324
0.0103628 0.0103932 0.0104237 0.0104541 0.0104846 0.0105153 0.0105461 0.0105769 0.0106077 0.0106385
0.0106695 0.0107006 0.0107318 0.0107629 0.0107941 0.0108255 0.0108569 0.0108884 0.0109199 0.0109514
0.0109832 0.011015 0.0110468 0.0110787 0.0111106 0.0111427 0.0111749 0.0112071 0.0112393 0.0112715
0.0113041 0.0113366 0.0113692 0.0114018 0.0114344 0.0114673 0.0115002 0.0115332 0.0115661 0.0115992
0.0116314 0.0116637 0.011696 0.0117284 0.0117585 0.01176 0.0117615 0.0117629 0.0117644 0.0117659
0.0117996 0.0118333 0.011867 0.0119008 0.0119346 0.0119687 0.0120029 0.0120371 0.0120713 0.0121055
0.01214 0.0121746 0.0122092 0.0122439 0.0122785 0.0123135 0.0123485 0.0123836 0.0124187 0.0124538
0.0124893 0.0125247 0.0125602 0.0125958 0.0126314 0.0126673 0.0127032 0.0127392 0.0127753 0.0128113
0.0128477 0.0128842 0.0129206 0.0129572 0.0129937 0.0130306 0.0130675 0.0131045 0.0131415 0.0131786
0.013216 0.0132535 0.013291 0.0133285 0.0133661 0.013404 0.013442 0.01348 0.0135181 0.0135563
0.0135909 0.0136256 0.0136603 0.0136951 0.0137277 0.013732 0.0137363 0.0137406 0.0137449 0.0137492
0.0137882 0.0138273 0.0138665 0.0139057 0.0139449 0.0139846 0.0140242 0.0140639 0.0141037 0.0141435
0.0141837 0.014224 0.0142643 0.0143047 0.0143451 0.014386 0.0144268 0.0144678 0.0145087 0.0145498
0.0145913 0.0146328 0.0146743 0.014716 0.0147577 0.0147998 0.014842 0.0148842 0.0149265 0.0149689
0.0150117 0.0150545 0.0150974 0.0151404 0.0151835 0.015227 0.0152706 0.0153142 0.0153579 0.0154017
0.0154184 0.015435 0.0154517 0.0154684 0.0154847 0.0155124 0.0155402 0.015568 0.0155959 0.0156238
0.0156688 0.0157138 0.015759 0.0158042 0.0158495 0.0158953 0.0159411 0.015987 0.016033 0.0160792
0.0161257 0.0161724 0.0162191 0.0162659 0.0163129 0.0163603 0.0164078 0.0164554 0.0165031 0.0165509
0.0165992 0.0166476 0.016696 0.0167446 0.0167933 0.0168425 0.0168918 0.0169412 0.0169907 0.0170404
0.01706 0.0170797 0.0170993 0.017119 0.0171383 0.017169 0.0171998 0.0172306 0.0172615 0.0172924
0.0173435 0.0173947 0.0174461 0.0174976 0.0175492 0.0176013 0.0176536 0.017706 0.0177585 0.0178111
0.0178643 0.0179176 0.0179711 0.0180247 0.0180784 0.0181327 0.0181871 0.0182417 0.0182964 0.0183513
0.0184068 0.0184624 0.0185181 0.018574 0.0186301 0.0186544 0.0186786 0.018703 0.0187273 0.0187511
0.0187838 0.0188166 0.0188494 0.0188823 0.0189152 0.0189731 0.0190312 0.0190894 0.0191477 0.0192063
0.0192655 0.0193249 0.0193844 0.0194442 0.0195041 0.0195647 0.0196254 0.0196863 0.0197474 0.0198088
0.0198708 0.019933 0.0199954 0.020058 0.0201208 0.0201696 0.0202184 0.0202674 0.0203165 0.0203636
0.0203789 0.0203943 0.0204096 0.020425 0.0204404 0.0205054 0.0205707 0.0206362 0.0207019 0.0207679
0.0208345 0.0209014 0.0209684 0.0210357 0.0211033 0.0211717 0.0212403 0.0213091 0.0213782 0.0214476
0.0215177 0.0215881 0.0216587 0.0217296 0.0218008 0.0218418 0.0218828 0.021924 0.0219652 0.0220053
0.0220369 0.0220686 0.0221003 0.0221321 0.0221639 0.0222379 0.0223121 0.0223866 0.0224614 0.0225366
0.0226125 0.0226888 0.0227654 0.0228423 0.0229196 0.0229977 0.0230761 0.0231549 0.023234 0.0233135
0.023391 0.0234689 0.0235471 0.0236257 0.0237008 0.0237044 0.023708 0.0237117 0.0237153 0.0237189
0.0238016 0.0238847 0.0239682 0.024052 0.0241362 0.0242215 0.0243071 0.024393 0.0244794 0.0245662
0.024654 0.0247422 0.0248308 0.0249198 0.0250093 0.0250999 0.0251909 0.0252823 0.0253742 0.0254666
0.0254679 0.0254693 0.0254707 0.0254721 0.0254734 0.0255655 0.0256581 0.025751 0.0258444 0.0259383
0.0260347 0.0261316 0.026229 0.0263268 0.0264253 0.0265248 0.0266249 0.0267254 0.0268264 0.0269281
0.0270116 0.0270955 0.0271797 0.0272643 0.0273463 0.0273668 0.0273872 0.0274077 0.0274282 0.0274488
0.0275552 0.0276621 0.0277696 0.0278777 0.0279864 0.0280965 0.0282072 0.0283185 0.0284304 0.028543
0.0286569 0.0287715 0.0288867 0.0290025 0.0291191 0.0291638 0.0292085 0.0292534 0.0292983 0.0293427
0.029417 0.0294915 0.0295663 0.0296414 0.0297167 0.0298389 0.0299619 0.0300854 0.0302097 0.0303348
0.0304615 0.0305889 0.0307171 0.0308459 0.0309757 0.0310777 0.0311803 0.0312833 0.0313867 0.0314882
0.0315186 0.0315491 0.0315796 0.0316102 0.0316408 0.0317771 0.0319141 0.032052 0.0321906 0.0323301
0.0324712 0.0326133 0.0327561 0.0328998 0.0330444 0.0331909 0.0333383 0.0334866 0.0336357 0.0337858
0.0337908 0.0337958 0.0338008 0.0338058 0.0338108 0.0339579 0.0341058 0.0342545 0.0344041 0.0345547
0.0347123 0.034871 0.0350307 0.0351913 0.0353529 0.0355164 0.0356809 0.0358465 0.0360129 0.0361804
0.0361857 0.0361911 0.0361964 0.0362017 0.036207 0.0363716 0.0365371 0.0367036 0.036871 0.0370393
0.0372152 0.0373922 0.0375702 0.0377493 0.0379293 0.0380939 0.0382594 0.0384257 0.0385929 0.0387604
0.0387786 0.0387968 0.0388149 0.0388331 0.0388513 0.0390403 0.0392302 0.0394213 0.0396133 0.0398063
0.0400014 0.0401977 0.0403952 0.0405936 0.0407929 0.0409349 0.0410774 0.0412205 0.0413641 0.0415093
0.04157 0.0416308 0.0416917 0.0417526 0.0418137 0.042022 0.0422314 0.0424418 0.0426532 0.0428652
0.0430798 0.0432955 0.0435123 0.0437299 0.0439482 0.0440579 0.0441678 0.0442779 0.0443883 0.0445004
0.0446126 0.044725 0.0448376 0.0449504 0.0450633 0.0452901 0.0455178 0.0457465 0.0459759 0.0462057
0.0464382 0.0466715 0.0469057 0.0471406 0.0473758 0.0474587 0.0475417 0.0476248 0.0477079 0.0477925
0.0479479 0.0481034 0.0482593 0.0484154 0.0485715 0.048814 0.0490572 0.049301 0.0495454 0.0497897
0.0500363 0.0502835 0.0505313 0.0507794 0.0510274 0.051114 0.0512006 0.0512873 0.051374 0.0514629
0.0516267 0.0517906 0.0519546 0.0521187 0.0522827 0.0525362 0.05279 0.0530441 0.0532983 0.053552
0.0538079 0.054064 0.0543203 0.0545765 0.0548322 0.0549879 0.0551436 0.0552993 0.055455 0.0556191
0.0557194 0.0558196 0.0559198 0.05602 0.05612 0.0563791 0.0566381 0.0568969 0.0571555 0.0574133
0.0576727 0.057932 0.058191 0.0584497 0.0587075 0.058967 0.0592263 0.0594852 0.0597436 0.060001
0.0600882 0.0601754 0.0602624 0.0603495 0.0604402 0.0606108 0.0607812 0.0609513 0.0611212 0.0612907
0.0615487 0.0618063 0.0620632 0.0623195 0.0625747 0.0628313 0.0630873 0.0633427 0.0635974 0.0638508
0.0641056 0.0643598 0.0646132 0.0648659 0.0651173 0.0653699 0.0656219 0.065873 0.0661232 0.066372
0.0664091 0.0664461 0.0664832 0.0665202 0.0665592 0.0667712 0.0669825 0.0671931 0.0674031 0.067612
0.0678592 0.0681055 0.0683505 0.0685944 0.0688365 0.0690695 0.0693017 0.0695328 0.0697628 0.069991
0.0702265 0.0704605 0.070693 0.0709238 0.0711528 0.0713094 0.0714654 0.0716205 0.0717749 0.0719509
0.0720242 0.0720973 0.0721703 0.072243 0.0723156 0.0725522 0.0727869 0.0730196 0.0732506 0.0734795
0.0737153 0.0739492 0.074181 0.0744108 0.0746384 0.0748729 0.0751052 0.0753354 0.0755635 0.0757894
0.0760125 0.0762335 0.0764525 0.0766694 0.0769303 0.0769318 0.0769333 0.0769348 0.0769363 0.0769378
0.0771664 0.0773927 0.0776168 0.0778387 0.0780585 0.0782861 0.0785114 0.0787344 0.0789551 0.0791736
0.0793984 0.0796207 0.0798407 0.0800583 0.0802739 0.0804955 0.0807147 0.0809315 0.081146 0.0813584
0.0815768 0.0817928 0.0820064 0.0822178 0.082427 0.082642 0.0828545 0.0830648 0.0832728 0.0834787
0.0834917 0.0835047 0.0835176 0.0835306 0.0835438 0.0837417 0.0839376 0.0841316 0.0843235 0.0845136
0.0847221 0.0849281 0.0851319 0.0853334 0.0855329 0.0857381 0.0859409 0.0861414 0.0863398 0.0865362
0.0867382 0.0869378 0.087135 0.0873302 0.0875235 0.0877223 0.0879188 0.088113 0.088305 0.0884953
0.0886911 0.0888845 0.0890756 0.0892647 0.089452 0.0896448 0.0898353 0.0900237 0.09021 0.0903945
0.0905842 0.0907716 0.0909569 0.0911403 0.0913219 0.0915088 0.0916936 0.0918764 0.0920571 0.0922359
0.0924196 0.0926011 0.0927807 0.0929585 0.0931346 0.0933159 0.0934949 0.0936714 0.0938455 0.094017
0.0940225 0.094028 0.0940335 0.094039 0.0940442 0.0942145 0.0943831 0.0945501 0.0947155 0.0948791
-1.04583e-05 -8.36667e-06 -6.275e-06 -4.18334e-06 -2.09167e-06 0 3.10153e-05 6.20312e-05 9.30508e-05 0.000124075
0.00015511 0.000186928 0.000218747 0.000250571 0.000282403 0.000314247 0.000344834 0.000375426 0.000406024 0.000436629
0.000467248 0.000496657 0.00052607 0.000555489 0.000584916 0.000614352 0.000642626 0.000670902 0.000699183 0.00072747
0.000755765 0.000782936 0.00081011 0.000837286 0.000864468 0.000891655 0.000917761 0.000943868 0.000969977 0.00099609
0.00102221 0.00104729 0.00107236 0.00109744 0.00112253 0.00114761 0.0011717 0.00119578 0.00121987 0.00124395
0.00126804 0.00129117 0.00131429 0.00133742 0.00136055 0.00138368 0.00140588 0.00142809 0.00145029 0.00147249
0.0014947 0.00151602 0.00153733 0.00155865 0.00157997 0.00160128 0.00162175 0.00164221 0.00166268 0.00168314
0.0017036 0.00172325 0.00174289 0.00176253 0.00178217 0.00180181 0.00182067 0.00183953 0.00185838 0.00187724
0.00189609 0.00191419 0.00193229 0.00195039 0.00196848 0.00198658 0.00200395 0.00202132 0.00203869 0.00205606
0.00207342 0.0020901 0.00210677 0.00212344 0.00214011 0.00215678 0.00216791 0.00217904 0.00219016 0.00220129
0.00221241 0.00222363 0.00223484 0.00224604 0.00225725 0.00226846 0.00227975 0.00229105 0.00230234 0.00231363
0.00232492 0.0023363 0.00234767 0.00235905 0.00237042 0.0023818 0.00239326 0.00240472 0.00241618 0.00242764
0.00243909 0.00245064 0.00246219 0.00247373 0.00248527 0.00249681 0.00250845 0.00252008 0.00253171 0.00254333
0.00255496 0.00256668 0.0025784 0.00259011 0.00260183 0.00261354 0.00262535 0.00263715 0.00264896 0.00266076
0.00267256 0.00268446 0.00269635 0.00270824 0.00272013 0.00273202 0.00274401 0.00275599 0.00276797 0.00277995
0.00279193 0.00280401 0.00281608 0.00282815 0.00284022 0.00285229 0.00286446 0.00287662 0.00288879 0.00290095
0.00291311 0.00292537 0.00293763 0.00294988 0.00296214 0.00297439 0.00298674 0.00299909 0.00301144 0.00302379
0.00303614 0.00304858 0.00306103 0.00307347 0.00308591 0.00309836 0.0031109 0.00312343 0.00313597 0.00314851
0.00316105 0.00317368 0.00318631 0.00319895 0.00321158 0.00322421 0.00323695 0.00324968 0.00326241 0.00327514
0.00328787 0.0033007 0.00331353 0.00332635 0.00333918 0.003352 0.00336493 0.00337785 0.00339078 0.0034037
0.00341663 0.00342965 0.00344268 0.0034557 0.00346873 0.00348175 0.00349487 0.003508 0.00352112 0.00353425
0.00354737 0.00354834 0.00354931 0.00355028 0.00355125 0.00355222 0.00356447 0.00357673 0.00358898 0.00360124
0.00361349 0.00362682 0.00364014 0.00365347 0.00366679 0.00368012 0.00369355 0.00370697 0.0037204 0.00373383
0.00374726 0.00376079 0.00377432 0.00378785 0.00380138 0.00381491 0.00382854 0.00384218 0.00385582 0.00386945
0.00388308 0.00389683 0.00391057 0.0039243 0.00393804 0.00395178 0.00396563 0.00397948 0.00399332 0.00400717
0.00402102 0.00403497 0.00404893 0.00406288 0.00407683 0.00409078 0.00410485 0.00411891 0.00413296 0.00414702
0.00416108 0.00417526 0.00418943 0.00420359 0.00421776 0.00423193 0.00424622 0.0042605 0.00427478 0.00428906
0.00430334 0.00431774 0.00433213 0.00434652 0.00436091 0.0043753 0.00438982 0.00440432 0.00441882 0.00443332
0.00444783 0.00446245 0.00447707 0.00449168 0.00450629 0.00452091 0.00453565 0.00455039 0.00456512 0.00457985
0.00459459 0.00460945 0.0046243 0.00463915 0.00465399 0.00466885 0.00468382 0.00469879 0.00471376 0.00472872
0.00474369 0.00475879 0.00477388 0.00478896 0.00480404 0.00481913 0.00483435 0.00484956 0.00486477 0.00487998
0.00489519 0.00491053 0.00492587 0.0049412 0.00495653 0.00497186 0.00498733 0.00500279 0.00501824 0.0050337
0.00504916 0.00506475 0.00508033 0.00509591 0.0051115 0.00512709 0.00514281 0.00515852 0.00517423 0.00518994
0.00520566 0.00522151 0.00523735 0.00525319 0.00526903 0.00528488 0.00530086 0.00531684 0.00533281 0.00534879
0.00536477 0.00538088 0.00539699 0.00541311 0.00542922 0.00544534 0.00546159 0.00547783 0.00549408 0.00551033
0.00552659 0.00554297 0.00555936 0.00557574 0.00559213 0.00560853 0.00562009 0.00563165 0.00564321 0.00565478
0.00566619 0.00567119 0.00567619 0.00568119 0.00568619 0.00569119 0.00570786 0.00572453 0.0057412 0.00575788
0.00577456 0.00579138 0.0058082 0.00582502 0.00584184 0.00585867 0.00587564 0.00589261 0.00590958 0.00592656
0.00594354 0.00596066 0.00597778 0.00599491 0.00601203 0.00602916 0.00604645 0.00606372 0.00608099 0.00609827
0.00611556 0.00613301 0.00615044 0.00616788 0.00618532 0.00620277 0.00622038 0.00623797 0.00625556 0.00627316
0.00629077 0.00630855 0.00632631 0.00634407 0.00636182 0.0063796 0.00639755 0.00641548 0.0064334 0.00645132
0.00646927 0.00648739 0.00650549 0.00652358 0.00654168 0.0065598 0.00657809 0.00659637 0.00661464 0.00663291
0.00665121 0.00666967 0.00668813 0.00670657 0.00672502 0.0067435 0.00676214 0.00678078 0.0067994 0.00681803
0.00683668 0.00685552 0.00687434 0.00689314 0.00691196 0.00693081 0.00694982 0.00696883 0.00698783 0.00700683
0.00702586 0.00704507 0.00706427 0.00708346 0.00710267 0.00712189 0.00714129 0.00716068 0.00718007 0.00719947
0.00721889 0.00723849 0.00725807 0.00727766 0.00729727 0.00731688 0.00733668 0.00735647 0.00737627 0.00739608
0.0074159 0.0074359 0.0074559 0.00747591 0.00749592 0.00751595 0.00753616 0.00755637 0.00757659 0.00759682
0.00761706 0.00762289 0.00762871 0.00763453 0.00764036 0.00764612 0.00766074 0.00767536 0.00768999 0.00770462
0.00771926 0.00773989 0.00776054 0.0077812 0.00780187 0.00782255 0.00784342 0.00786429 0.00788518 0.00790608
0.00792699 0.00794809 0.00796918 0.0079903 0.00801142 0.00803256 0.0080539 0.00807523 0.00809658 0.00811794
0.00813933 0.0081609 0.00818248 0.00820406 0.00822566 0.00824729 0.00826911 0.00829093 0.00831276 0.0083346
0.00835647 0.00837855 0.00840062 0.0084227 0.0084448 0.00846692 0.00848925 0.00851158 0.00853391 0.00855626
0.00857864 0.00860123 0.00862382 0.00864641 0.00866902 0.00869167 0.00871452 0.00873737 0.00876023 0.00878311
0.00880602 0.00882914 0.00885227 0.00887541 0.00889857 0.00892176 0.00894515 0.00896855 0.00899197 0.0090154
0.00903886 0.00906254 0.00908622 0.00910993 0.00913366 0.00915741 0.00918137 0.00920535 0.00922935 0.00925337
0.00927742 0.00928771 0.009298 0.0093083 0.00931859 0.0093287 0.00934273 0.00935677 0.00937081 0.00938487
0.00939893 0.00942349 0.00944807 0.00947268 0.00949731 0.00952196 0.00954684 0.00957173 0.00959665 0.0096216
0.00964657 0.00967177 0.00969698 0.00972223 0.00974749 0.00977279 0.00979832 0.00982386 0.00984943 0.00987503
0.00990066 0.00992652 0.00995241 0.00997832 0.0100043 0.0100302 0.0100564 0.0100827 0.0101089 0.0101352
0.0101615 0.0101881 0.0102147 0.0102413 0.0102679 0.0102946 0.0103215 0.0103485 0.0103754 0.0104024
0.0104295 0.0104568 0.0104841 0.0105114 0.0105388 0.0105662 0.0105939 0.0106216 0.0106493 0.0106771
0.0107049 0.0107243 0.0107437 0.0107632 0.0107826 0.0108015 0.0108103 0.0108191 0.0108279 0.0108367
0.0108456 0.010874 0.0109025 0.010931 0.0109596 0.0109882 0.0110171 0.011046 0.0110749 0.0111039
0.011133 0.0111623 0.0111916 0.011221 0.0112504 0.0112799 0.0113096 0.0113394 0.0113692 0.011399