# vtk DataFile Version 2.0
tracks
ASCII
DATASET POLYDATA
POINTS 12185 float
-0.0206 0.00100004 1e-05 -0.02058 0.00100004 1e-05 -0.02056 0.00100003 1e-05 -0.02054 0.00100002
1e-05 -0.02052 0.00100001 1e-05 -0.0205 0.001 1e-05 -0.0202034 0.0009998 1e-05
-0.0199069 0.000999311 1e-05 -0.0196103 0.000998549 1e-05 -0.0193138 0.000997512 1e-05 -0.0190172
0.0009962 1e-05 -0.0187133 0.000994768 1e-05 -0.0184094 0.000993412 1e-05 -0.0181054 0.000992135
1e-05 -0.0178015 0.000990937 1e-05 -0.0174976 0.000989818 1e-05 -0.0172058 0.000988839 1e-05
-0.016914 0.00098789 1e-05 -0.0166223 0.000987009 1e-05 -0.0163305 0.000986197 1e-05 -0.0160387
0.000985452 1e-05 -0.0157586 0.000984817 1e-05 -0.0154785 0.000984214 1e-05 -0.0151983 0.000983659
1e-05 -0.0149182 0.000983153 1e-05 -0.0146381 0.000982697 1e-05 -0.0143692 0.000982312 1e-05
-0.0141002 0.000981935 1e-05 -0.0138313 0.00098159 1e-05 -0.0135623 0.000981276 1e-05 -0.0132934
0.000980992 1e-05 -0.0130352 0.000980755 1e-05 -0.012777 0.000980529 1e-05 -0.0125189 0.000980325
1e-05 -0.0122607 0.000980144 1e-05 -0.0120025 0.000979986 1e-05 -0.0117546 0.000979855 1e-05
-0.0115068 0.000979738 1e-05 -0.0112589 0.000979637 1e-05 -0.0110111 0.000979553 1e-05 -0.0107632
0.000979484 1e-05 -0.0105252 0.00097943 1e-05 -0.0102873 0.000979388 1e-05 -0.0100493 0.000979357
1e-05 -0.00981134 0.000979337 1e-05 -0.00957337 0.000979328 1e-05 -0.00934491 0.000979325 1e-05
-0.00911645 0.000979332 1e-05 -0.008888 0.000979346 1e-05 -0.00865954 0.000979369 1e-05 -0.00843108
0.000979399 1e-05 -0.00821175 0.000979431 1e-05 -0.00799242 0.000979471 1e-05 -0.00777309 0.000979518
1e-05 -0.00755376 0.00097957 1e-05 -0.00733443 0.000979629 1e-05 -0.00712386 0.000979687 1e-05
-0.0069133 0.000979752 1e-05 -0.00670273 0.000979823 1e-05 -0.00649217 0.0009799 1e-05 -0.0062816
0.000979981 1e-05 -0.00607945 0.000980061 1e-05 -0.00587729 0.000980148 1e-05 -0.00567514 0.00098024
1e-05 -0.00547298 0.000980337 1e-05 -0.00527083 0.000980439 1e-05 -0.00507675 0.000980539 1e-05
-0.00488267 0.000980646 1e-05 -0.0046886 0.000980759 1e-05 -0.00449452 0.000980877 1e-05 -0.00430044
0.000981001 1e-05 -0.00411412 0.000981123 1e-05 -0.0039278 0.000981252 1e-05 -0.00374147 0.000981389
1e-05 -0.00355515 0.000981533 1e-05 -0.00336883 0.000981683 1e-05 -0.00318995 0.000981833 1e-05
-0.00301107 0.000981992 1e-05 -0.00283219 0.000982161 1e-05 -0.00265331 0.000982341 1e-05 -0.00247443
0.000982531 1e-05 -0.0023027 0.000982722 1e-05 -0.00213097 0.000982928 1e-05 -0.00195923 0.000983149
1e-05 -0.0017875 0.000983385 1e-05 -0.00161577 0.000983637 1e-05 -0.0014509 0.000983891 1e-05
-0.00128603 0.000984171 1e-05 -0.00112116 0.000984482 1e-05 -0.000956289 0.000984826 1e-05 -0.000791418
0.000985201 1e-05 -0.000633134 0.0009856 1e-05 -0.000474851 0.000986046 1e-05 -0.000316568 0.000986533
1e-05 -0.000158284 0.000987061 1e-05 0 0.000987628 1e-05 0.000105677 0.000988026 1e-05
0.000211355 0.000988456 1e-05 0.000317032 0.000988913 1e-05 0.000422709 0.000989398 1e-05 0.000528387
0.000989909 1e-05 0.000634886 0.000990448 1e-05 0.000741384 0.000991037 1e-05 0.000847882 0.000991653
1e-05 0.00095438 0.000992297 1e-05 0.00106088 0.000992969 1e-05 0.00116821 0.000993659 1e-05
0.00127554 0.000994385 1e-05 0.00138286 0.000995114 1e-05 0.00149019 0.000995846 1e-05 0.00159752
0.000996581 1e-05 0.00170568 0.000997284 1e-05 0.00181384 0.000997987 1e-05 0.00192201 0.000998668
1e-05 0.00203017 0.000999325 1e-05 0.00213833 0.000999959 1e-05 0.00224733 0.00100054 1e-05
0.00235633 0.00100111 1e-05 0.00246534 0.00100165 1e-05 0.00257434 0.00100217 1e-05 0.00268334
0.00100266 1e-05 0.00279319 0.00100309 1e-05 0.00290304 0.00100352 1e-05 0.00301289 0.00100392
1e-05 0.00312274 0.0010043 1e-05 0.00323259 0.00100465 1e-05 0.00334329 0.00100495 1e-05
0.003454 0.00100525 1e-05 0.0035647 0.00100553 1e-05 0.00367541 0.00100578 1e-05 0.00378611
0.00100601 1e-05 0.00389767 0.00100618 1e-05 0.00400924 0.00100635 1e-05 0.0041208 0.00100651
1e-05 0.00423237 0.00100664 1e-05 0.00434393 0.00100674 1e-05 0.00445636 0.00100679 1e-05
0.00456879 0.00100685 1e-05 0.00468123 0.00100689 1e-05 0.00479366 0.0010069 1e-05 0.00490609
0.0010069 1e-05 0.0050194 0.00100683 1e-05 0.0051327 0.00100678 1e-05 0.00524601 0.00100671
1e-05 0.00535931 0.00100661 1e-05 0.00547262 0.0010065 1e-05 0.00558681 0.00100633 1e-05
0.005701 0.00100617 1e-05 0.00581518 0.00100599 1e-05 0.00592937 0.0010058 1e-05 0.00604356
0.00100558 1e-05 0.00615863 0.0010053 1e-05 0.00627371 0.00100504 1e-05 0.00638878 0.00100477
1e-05 0.00650386 0.00100448 1e-05 0.00661893 0.00100416 1e-05 0.0067349 0.00100379 1e-05
0.00685087 0.00100344 1e-05 0.00696684 0.00100307 1e-05 0.00708281 0.00100269 1e-05 0.00719878
0.00100228 1e-05 0.00731565 0.00100182 1e-05 0.00743252 0.00100138 1e-05 0.00754939 0.00100092
1e-05 0.00766626 0.00100045 1e-05 0.00778313 0.00099995 1e-05 0.00790091 0.000999412 1e-05
0.00801869 0.000998876 1e-05 0.00813647 0.000998334 1e-05 0.00825425 0.000997777 1e-05 0.00837203
0.000997195 1e-05 0.00849073 0.000996576 1e-05 0.00860942 0.000995956 1e-05 0.00872812 0.000995331
1e-05 0.00884681 0.00099469 1e-05 0.00896551 0.000994026 1e-05 0.00908513 0.000993329 1e-05
0.00920475 0.000992628 1e-05 0.00932436 0.00099192 1e-05 0.00944398 0.000991197 1e-05 0.0095636
0.000990453 1e-05 0.00968414 0.00098968 1e-05 0.00980468 0.0009889 1e-05 0.00992522 0.000988112
1e-05 0.0100458 0.00098731 1e-05 0.0101663 0.000986488 1e-05 0.0102878 0.000985641 1e-05
0.0104093 0.000984784 1e-05 0.0105308 0.000983918 1e-05 0.0106523 0.000983037 1e-05 0.0107738
0.00098214 1e-05 0.0108962 0.00098122 1e-05 0.0110186 0.000980288 1e-05 0.0111411 0.000979345
1e-05 0.0112635 0.000978387 1e-05 0.0113859 0.000977416 1e-05 0.0115093 0.000976424 1e-05
0.0116327 0.000975418 1e-05 0.011756 0.000974399 1e-05 0.0118794 0.000973366 1e-05 0.0120028
0.000972321 1e-05 0.0121271 0.000971258 1e-05 0.0122515 0.000970178 1e-05 0.0123758 0.000969083
1e-05 0.0125002 0.000967975 1e-05 0.0126245 0.000966858 1e-05 0.0127498 0.000965723 1e-05
0.0128751 0.00096457 1e-05 0.0130005 0.0009634 1e-05 0.0131258 0.000962218 1e-05 0.0132511
0.000961028 1e-05 0.0133774 0.000959821 1e-05 0.0135037 0.000958595 1e-05 0.0136299 0.00095735
1e-05 0.0137562 0.000956093 1e-05 0.0138825 0.00095483 1e-05 0.0140098 0.000953552 1e-05
0.014137 0.000952252 1e-05 0.0142643 0.000950932 1e-05 0.0143915 0.0009496 1e-05 0.0145188
0.000948263 1e-05 0.0146471 0.000946911 1e-05 0.0147753 0.000945537 1e-05 0.0149036 0.00094414
1e-05 0.0150318 0.000942733 1e-05 0.0151601 0.000941321 1e-05 0.0152893 0.000939895 1e-05
0.0154186 0.000938445 1e-05 0.0155478 0.000936973 1e-05 0.0156771 0.00093549 1e-05 0.0158063
0.000934003 1e-05 0.0159366 0.0009325 1e-05 0.0160668 0.000930973 1e-05 0.0161971 0.000929424
1e-05 0.0163273 0.000927865 1e-05 0.0164576 0.000926299 1e-05 0.0165889 0.000924719 1e-05
0.0167201 0.000923113 1e-05 0.0168514 0.000921487 1e-05 0.0169826 0.000919849 1e-05 0.0171139
0.000918204 1e-05 0.0172462 0.000916544 1e-05 0.0173785 0.000914857 1e-05 0.0175108 0.000913151
1e-05 0.0176431 0.000911432 1e-05 0.0177754 0.000909705 1e-05 0.0179087 0.000907962 1e-05
0.018042 0.000906191 1e-05 0.0181754 0.000904402 1e-05 0.0183087 0.000902601 1e-05 0.018442
0.000900789 1e-05 0.0185763 0.00089896 1e-05 0.0187107 0.000897102 1e-05 0.018845 0.000895229
1e-05 0.0189794 0.000893342 1e-05 0.0191137 0.000891441 1e-05 0.0192491 0.000889523 1e-05
0.0193845 0.000887576 1e-05 0.0195199 0.000885614 1e-05 0.0196553 0.000883638 1e-05 0.0197907
0.000881647 1e-05 0.0199272 0.000879636 1e-05 0.0200636 0.000877597 1e-05 0.0202001 0.000875543
1e-05 0.0203365 0.000873474 1e-05 0.020473 0.000871389 1e-05 0.0206105 0.00086928 1e-05
0.020748 0.000867146 1e-05 0.0208856 0.000864996 1e-05 0.0210231 0.000862829 1e-05 0.0211606
0.000860647 1e-05 0.0212992 0.000858436 1e-05 0.0214378 0.000856202 1e-05 0.0215763 0.000853951
1e-05 0.0217149 0.000851683 1e-05 0.0218535 0.000849397 1e-05 0.0219931 0.00084708 1e-05
0.0221328 0.000844741 1e-05 0.0222724 0.000842383 1e-05 0.0224121 0.000840008 1e-05 0.0225517
0.000837615 1e-05 0.0225692 0.000837312 1e-05 0.0225868 0.000837008 1e-05 0.0226043 0.000836705
1e-05 0.0226219 0.000836401 1e-05 0.0226393 0.000836099 1e-05 0.0227625 0.00083396 1e-05
0.0228858 0.000831806 1e-05 0.023009 0.000829637 1e-05 0.0231323 0.000827453 1e-05 0.0232555
0.000825254 1e-05 0.0233973 0.000822709 1e-05 0.0235392 0.000820141 1e-05 0.023681 0.000817552
1e-05 0.0238229 0.000814943 1e-05 0.0239647 0.000812313 1e-05 0.0241076 0.000809648 1e-05
0.0242506 0.000806956 1e-05 0.0243935 0.000804242 1e-05 0.0245365 0.000801505 1e-05 0.0246794
0.000798746 1e-05 0.0248234 0.000795956 1e-05 0.0249675 0.000793132 1e-05 0.0251115 0.000790285
1e-05 0.0252556 0.000787415 1e-05 0.0253996 0.00078452 1e-05 0.0255448 0.000781596 1e-05
0.02569 0.000778633 1e-05 0.0258351 0.000775645 1e-05 0.0259803 0.000772632 1e-05 0.0261255
0.000769595 1e-05 0.0262718 0.000766528 1e-05 0.0264181 0.00076342 1e-05 0.0265644 0.000760284
1e-05 0.0267107 0.000757121 1e-05 0.026857 0.000753936 1e-05 0.0270044 0.000750718 1e-05
0.0271519 0.000747457 1e-05 0.0272993 0.000744163 1e-05 0.0274468 0.000740841 1e-05 0.0275942
0.000737498 1e-05 0.0277428 0.00073412 1e-05 0.0278914 0.000730697 1e-05 0.0280399 0.000727235
1e-05 0.0281885 0.000723744 1e-05 0.0283371 0.000720234 1e-05 0.0284868 0.000716685 1e-05
0.0286366 0.000713089 1e-05 0.0287863 0.00070945 1e-05 0.0289361 0.000705778 1e-05 0.0290858
0.00070209 1e-05 0.0292367 0.00069836 1e-05 0.0293876 0.000694581 1e-05 0.0295385 0.000690755
1e-05 0.0296894 0.000686895 1e-05 0.0298403 0.000683018 1e-05 0.0299924 0.000679095 1e-05
0.0301445 0.000675121 1e-05 0.0302965 0.000671097 1e-05 0.0304486 0.000667038 1e-05 0.0306007
0.000662959 1e-05 0.030754 0.00065883 1e-05 0.0309072 0.000654648 1e-05 0.0310605 0.000650414
1e-05 0.0312137 0.000646142 1e-05 0.031367 0.000641849 1e-05 0.0315215 0.000637499 1e-05
0.0316759 0.000633095 1e-05 0.0318304 0.000628636 1e-05 0.0319848 0.000624138 1e-05 0.0321393
[...]
POINT_DATA 12185
FIELD attributes 4
age 1 12185 float
-1.26124e-05 -1.0089e-05 -7.56613e-06 -5.04366e-06 -2.52161e-06 0 3.73905e-05 7.47797e-05 0.000112174 0.000149576 0.000186986
0.000225357 0.0002637 0.000302044 0.000340387 0.00037873 0.000415564 0.000452357 0.000489138 0.000525908 0.000562665
0.000597969 0.000633228 0.000668473 0.000703705 0.000738922 0.000772752 0.000806539 0.000840315 0.00087408 0.000907833
0.000940258 0.000972643 0.00100502 0.00103739 0.00106975 0.00110084 0.00113189 0.00116294 0.00119398 0.00122501
0.00125484 0.00128462 0.0013144 0.00134418 0.00137396 0.00140257 0.00143114 0.00145972 0.00148829 0.00151686
0.00154431 0.00157173 0.00159916 0.00162658 0.00165399 0.00168034 0.00170666 0.00173298 0.0017593 0.00178561
0.0018109 0.00183617 0.00186143 0.0018867 0.00191196 0.00193624 0.00196049 0.00198475 0.002009 0.00203325
0.00205656 0.00207985 0.00210314 0.00212643 0.00214971 0.0021721 0.00219446 0.00221682 0.00223918 0.00226155
0.00228304 0.00230451 0.00232599 0.00234746 0.00236894 0.00238958 0.00241021 0.00243084 0.00245146 0.00247209
0.00249192 0.00251173 0.00253153 0.00255134 0.00257114 0.00258438 0.0025976 0.00261082 0.00262404 0.00263725
0.00265059 0.00266391 0.00267722 0.00269053 0.00270384 0.00271727 0.00273067 0.00274407 0.00275747 0.00277086
0.00278438 0.00279786 0.00281135 0.00282483 0.00283831 0.00285193 0.00286552 0.00287911 0.0028927 0.00290629
0.00292003 0.00293373 0.00294745 0.00296116 0.00297488 0.00298876 0.0030026 0.00301645 0.0030303 0.00304416
0.00305819 0.00307218 0.00308617 0.00310017 0.00311418 0.00312837 0.00314252 0.00315667 0.00317083 0.003185
0.00319937 0.00321368 0.003228 0.00324233 0.00325667 0.00327123 0.00328572 0.00330021 0.00331472 0.00332926
0.003344 0.00335868 0.00337336 0.00338806 0.00340278 0.00341772 0.0034326 0.00344747 0.00346236 0.00347729
0.00349243 0.00350751 0.00352258 0.00353767 0.0035528 0.00356814 0.00358344 0.00359871 0.00361401 0.00362935
0.0036449 0.00366041 0.00367589 0.00369139 0.00370695 0.00372272 0.00373844 0.00375414 0.00376985 0.00378563
0.00380161 0.00381755 0.00383346 0.00384939 0.00386539 0.00388159 0.00389776 0.00391389 0.00393005 0.00394627
0.00396269 0.00397908 0.00399544 0.00401182 0.00402826 0.00404491 0.00406152 0.00407812 0.00409473 0.0041114
0.00412827 0.00414511 0.00416194 0.00417878 0.00419568 0.00421278 0.00422986 0.00424691 0.00426399 0.00428112
0.00429845 0.00431575 0.00433304 0.00435035 0.00436771 0.00438526 0.0044028 0.00442033 0.00443787 0.00445546
0.00447325 0.00449102 0.00450878 0.00452656 0.00454438 0.0045624 0.0045804 0.0045984 0.00461641 0.00463447
0.00465272 0.00467096 0.0046892 0.00470745 0.00472574 0.00474422 0.00476269 0.00478117 0.00479966 0.00481819
0.0048369 0.00485561 0.00487433 0.00489307 0.00491183 0.00493077 0.00494972 0.00496867 0.00498765 0.00500664
0.00502582 0.00504499 0.00506419 0.0050834 0.00510262 0.00512204 0.00514146 0.00516089 0.00518034 0.00519981
0.00521946 0.00523912 0.00525879 0.00527848 0.00529819 0.00531808 0.00533798 0.00535789 0.00537782 0.00539777
0.00541789 0.00543803 0.00545818 0.00547835 0.00549853 0.00551889 0.00553927 0.00555966 0.00558006 0.00560049
0.00560305 0.00560562 0.00560819 0.00561076 0.00561331 0.00563136 0.00564942 0.00566749 0.00568558 0.00570368
0.00572453 0.00574539 0.00576627 0.00578717 0.00580809 0.00582918 0.00585029 0.00587142 0.00589256 0.00591373
0.00593506 0.00595642 0.0059778 0.00599919 0.0060206 0.00604219 0.0060638 0.00608543 0.00610707 0.00612874
0.00615057 0.00617243 0.00619431 0.00621621 0.00623812 0.00626021 0.00628232 0.00630446 0.00632661 0.00634877
0.00637112 0.00639348 0.00641587 0.00643827 0.00646069 0.00648329 0.00650592 0.00652856 0.00655123 0.00657391
0.00659676 0.00661965 0.00664255 0.00666548 0.00668841 0.00671153 0.00673468 0.00675785 0.00678104 0.00680424
0.00682763 0.00685104 0.00687448 0.00689793 0.00692139 0.00694505 0.00696873 0.00699244 0.00701617 0.00703991
0.00706383 0.00708779 0.00711177 0.00713576 0.00715977 0.00718398 0.00720822 0.00723248 0.00725675 0.00728105
0.00730554 0.00733006 0.0073546 0.00737915 0.00740373 0.00742851 0.00745332 0.00747814 0.00750299 0.00752785
0.00755293 0.00757803 0.00760315 0.0076283 0.00765346 0.00767505 0.00769665 0.00771826 0.00773989 0.00775993
0.00776406 0.00776819 0.00777233 0.00777646 0.0077806 0.00780628 0.00783199 0.00785773 0.00788349 0.00790927
0.00793528 0.00796132 0.00798738 0.00801347 0.00803959 0.00806593 0.00809229 0.00811869 0.00814511 0.00817157
0.00819824 0.00822495 0.00825169 0.00827846 0.00830525 0.00833228 0.00835934 0.00838643 0.00841356 0.00844072
0.00846811 0.00849553 0.008523 0.0085505 0.00857803 0.00860579 0.0086336 0.00866145 0.00868934 0.00871726
0.00874541 0.00877361 0.00880186 0.00883013 0.00885845 0.00888701 0.00891562 0.00894428 0.00897297 0.0090017
0.0090307 0.00905974 0.00908883 0.00911796 0.00914714 0.00916597 0.00918484 0.00920371 0.00922261 0.00924031
0.00925121 0.00926211 0.00927303 0.00928395 0.00929487 0.00932479 0.00935475 0.00938476 0.00941483 0.00944496
0.00947537 0.00950583 0.00953635 0.00956693 0.00959758 0.00962851 0.0096595 0.00969056 0.00972168 0.00975288
0.00978436 0.00981592 0.00984755 0.00987925 0.00991103 0.00994311 0.00997526 0.0100075 0.0100398 0.0100722
0.0101049 0.0101377 0.0101706 0.0102035 0.0102366 0.010263 0.0102896 0.0103161 0.0103427 0.0103673
0.0103747 0.0103822 0.0103896 0.0103971 0.0104045 0.0104386 0.0104728 0.0105071 0.0105415 0.010576
0.0106108 0.0106458 0.0106808 0.0107159 0.0107512 0.0107869 0.0108226 0.0108585 0.0108944 0.0109306
0.0109671 0.0110037 0.0110404 0.0110773 0.0111143 0.0111517 0.0111892 0.0112269 0.0112647 0.0113027
0.0113174 0.011332 0.0113467 0.0113614 0.0113756 0.0113996 0.0114237 0.0114479 0.0114721 0.0114964
0.0115358 0.0115754 0.0116151 0.011655 0.0116951 0.0117357 0.0117763 0.0118172 0.0118582 0.0118994
0.0119411 0.011983 0.012025 0.0120673 0.0121097 0.0121526 0.0121957 0.012239 0.0122825 0.0123262
0.01233 0.0123337 0.0123374 0.0123412 0.0123449 0.0123855 0.0124262 0.0124671 0.0125082 0.0125495
0.012595 0.0126408 0.0126867 0.0127329 0.0127793 0.0128262 0.0128734 0.0129207 0.0129683 0.0130161
0.0130645 0.0131131 0.0131619 0.0132109 0.0132602 0.0132774 0.0132945 0.0133117 0.0133289 0.013346
0.013379 0.0134121 0.0134453 0.0134786 0.013512 0.0135633 0.0136149 0.0136667 0.0137187 0.0137709
0.0138238 0.0138768 0.0139301 0.0139836 0.0140374 0.0140917 0.0141463 0.0142011 0.0142561 0.0143114
0.0143425 0.0143737 0.0144049 0.0144363 0.0144679 0.0144929 0.0145179 0.014543 0.0145681 0.0145933
0.0146507 0.0147083 0.0147661 0.0148242 0.0148824 0.0149413 0.0150003 0.0150596 0.0151191 0.0151788
0.0152391 0.0152997 0.0153605 0.0154214 0.0154825 0.0155443 0.0156063 0.0156685 0.0157309 0.0157935
0.0158081 0.0158227 0.0158374 0.015852 0.015867 0.0159157 0.0159645 0.0160135 0.0160625 0.0161116
0.0161762 0.016241 0.0163059 0.0163711 0.0164362 0.0165022 0.0165682 0.0166345 0.0167009 0.0167674
0.0168346 0.0169019 0.0169695 0.0170371 0.0171048 0.0171733 0.0172419 0.0173106 0.0173795 0.0174484
0.017518 0.0175878 0.0176577 0.0177278 0.0177978 0.0178439 0.01789 0.0179362 0.0179824 0.0180355
0.018059 0.0180824 0.0181059 0.0181294 0.0181529 0.0182247 0.0182967 0.0183687 0.0184408 0.0185129
0.0185858 0.0186587 0.0187317 0.0188047 0.0188778 0.0189515 0.0190253 0.0190992 0.0191731 0.019247
0.0193215 0.0193962 0.0194708 0.0195456 0.0196202 0.0196956 0.019771 0.0198464 0.0199218 0.0199972
0.0200732 0.0201493 0.0202253 0.0203014 0.0203774 0.020454 0.0205307 0.0206073 0.0206839 0.0207605
0.0208376 0.0209148 0.0209919 0.021069 0.0211461 0.0212237 0.0213013 0.0213788 0.0214563 0.0215337
0.0216117 0.0216896 0.0217675 0.0218453 0.021923 0.0220013 0.0220795 0.0221576 0.0222356 0.0223136
0.0223921 0.0224705 0.0225488 0.022627 0.0227051 0.0227838 0.0228623 0.0229408 0.0230191 0.0230973
0.023176 0.0232546 0.023333 0.0234113 0.0234895 0.0235683 0.0236469 0.0237254 0.0238037 0.023882
0.0239606 0.0240392 0.0241176 0.0241959 0.024274 0.0243527 0.0244312 0.0245095 0.0245877 0.0246658
0.024721 0.0247763 0.0248314 0.0248865 0.0249374 0.0249612 0.024985 0.0250087 0.0250325 0.0250562
0.0251345 0.0252127 0.0252907 0.0253686 0.0254462 0.0255243 0.0256022 0.0256798 0.0257574 0.0258347
0.0259126 0.0259903 0.0260679 0.0261452 0.0262224 0.0263 0.0263774 0.0264547 0.0265317 0.0266086
0.026686 0.0267631 0.0268401 0.0269169 0.0269936 0.0270707 0.0271476 0.0272243 0.0273009 0.0273773
0.0274542 0.0275308 0.0276073 0.0276836 0.0277598 0.0278364 0.0279128 0.0279891 0.0280652 0.0281411
0.0282174 0.0282936 0.0283696 0.0284455 0.0285212 0.0285973 0.0286733 0.0287491 0.0288248 0.0289003
0.0289083 0.0289163 0.0289242 0.0289322 0.0289403 0.0290082 0.029076 0.0291437 0.0292113 0.0292787
0.0293545 0.0294302 0.0295057 0.0295811 0.0296563 0.029732 0.0298076 0.029883 0.0299584 0.0300335
0.0301091 0.0301846 0.03026 0.0303352 0.0304103 0.0304859 0.0305614 0.0306368 0.030712 0.0307871
0.0308627 0.0309382 0.0310136 0.0310888 0.031164 0.0312397 0.0313154 0.0313909 0.0314663 0.0315417
0.0316175 0.0316932 0.0317689 0.0318445 0.03192 0.0319961 0.0320721 0.032148 0.0322239 0.0322997
0.032376 0.0324523 0.0325286 0.0326047 0.0326809 0.0327576 0.0328343 0.0329109 0.0329874 0.033064
0.0331412 0.0332183 0.0332953 0.0333724 0.0334495 0.0335272 0.0336048 0.0336825 0.0337601 0.0338379
0.0339162 0.0339945 0.0340728 0.0341511 0.0342295 0.0343055 0.0343815 0.0344575 0.0345336 0.0345849
0.034593 0.034601 0.034609 0.0346171 0.0346251 0.034705 0.0347848 0.0348648 0.0349448 0.0350249
0.0351058 0.0351867 0.0352677 0.0353488 0.0354301 0.035512 0.0355939 0.035676 0.0357581 0.0358406
0.0359238 0.0360071 0.0360904 0.0361739 0.0362578 0.0363423 0.0364269 0.0365116 0.0365965 0.0366818
0.0367211 0.0367604 0.0367998 0.0368392 0.036875 0.0369228 0.0369706 0.0370184 0.0370663 0.0371144
0.0372021 0.0372901 0.0373782 0.0374665 0.0375554 0.0376451 0.0377349 0.037825 0.0379153 0.0380062
0.0380949 0.0381838 0.0382729 0.0383623 0.0384387 0.0384446 0.0384506 0.0384565 0.0384625 0.0384684
0.0385625 0.0386569 0.0387515 0.0388465 0.0389423 0.039039 0.039136 0.0392334 0.0393311 0.0394298
0.0394977 0.0395659 0.0396342 0.0397027 0.0397654 0.0397987 0.0398321 0.0398655 0.0398989 0.0399325
0.0400352 0.0401383 0.0402418 0.0403458 0.040451 0.0405572 0.0406639 0.0407711 0.0408789 0.0409827
0.0409838 0.0409848 0.0409858 0.0409869 0.0409879 0.0410979 0.0412084 0.0413196 0.0414313 0.0415444
0.0416586 0.0417735 0.041889 0.0420053 0.0421229 0.0421282 0.0421334 0.0421387 0.0421439 0.0421491
0.042263 0.0423774 0.0424926 0.0426084 0.0427256 0.0428405 0.0429561 0.0430724 0.0431894 0.0432989
0.0433101 0.0433212 0.0433324 0.0433436 0.0433548 0.0434843 0.0436147 0.043746 0.0438782 0.0440122
0.0440946 0.0441773 0.0442604 0.0443439 0.0444249 0.04448 0.0445352 0.0445907 0.0446463 0.0447022
0.0448443 0.0449875 0.0451319 0.0452773 0.0454245 0.0454525 0.0454805 0.0455086 0.0455367 0.0455646
0.0456868 0.0458097 0.0459334 0.046058 0.0461836 0.0462938 0.0464046 0.0465161 0.0466282 0.0467395
0.0467875 0.0468356 0.0468838 0.0469321 0.0469806 0.0471449 0.0473105 0.0474775 0.0476458 0.0478153
0.0478464 0.0478775 0.0479086 0.0479398 0.0479711 0.048113 0.0482558 0.0483995 0.0485442 0.0486893
0.0488068 0.0489249 0.0490436 0.0491628 0.0492856 0.0493485 0.0494116 0.0494748 0.0495381 0.0496015
0.0497886 0.0499768 0.0501664 0.050357 0.0505475 0.0505809 0.0506143 0.0506477 0.0506811 0.0507151
0.0508759 0.0510373 0.0511995 0.0513622 0.0515244 0.0516771 0.0518304 0.0519841 0.0521383 0.0523079
0.0523514 0.0523949 0.0524385 0.052482 0.0525255 0.0527286 0.0529322 0.0531363 0.0533408 0.0535434
0.0536613 0.0537793 0.0538973 0.0540154 0.0541474 0.0542321 0.0543167 0.0544013 0.054486 0.0545702
0.0547763 0.0549823 0.0551881 0.0553937 0.0555968 0.0557574 0.0559178 0.056078 0.0562375 0.0564384
0.056474 0.0565096 0.0565452 0.0565808 0.0566163 0.0568107 0.0570047 0.057198 0.0573905 0.0575801
0.057743 0.057905 0.058066 0.0582261 0.0584239 0.0584485 0.0584731 0.0584976 0.0585221 0.0585466
0.0587427 0.0589372 0.0591301 0.0593213 0.0595098 0.0597045 0.0598973 0.0600882 0.0602773 0.0604636
0.0605284 0.060593 0.0606573 0.0607214 0.0607937 0.0609168 0.061039 0.0611603 0.0612807 0.0614001
0.0615886 0.0617747 0.0619586 0.0621403 0.0623196 0.0625037 0.0626854 0.0628647 0.0630417 0.0632166
0.0633913 0.0635638 0.0637343 0.0639026 0.0640916 0.0641019 0.0641123 0.0641227 0.064133 0.0641437
0.0643078 0.06447 0.0646303 0.0647888 0.0649456 0.0651169 0.065286 0.065453 0.0656179 0.0657812
0.065949 0.0661146 0.0662781 0.0664397 0.0665998 0.0667645 0.066927 0.0670875 0.0672463 0.0674037
0.0675655 0.0677254 0.0678834 0.0680397 0.0681947 0.0683542 0.0685119 0.068668 0.0688225 0.0689756
0.0691332 0.0692891 0.0694436 0.0695966 0.0697482 0.0699044 0.070059 0.0702122 0.070364 0.0705145
0.0706314 0.0707475 0.0708629 0.0709774 0.0711377 0.0711653 0.0711929 0.0712204 0.0712478 0.0712753
0.0714295 0.0715824 0.0717341 0.0718845 0.0720337 0.0721877 0.0723402 0.0724915 0.0726416 0.0727905
0.0729445 0.0730968 0.073248 0.073398 0.0735468 0.0737008 0.073853 0.074004 0.074154 0.0743028
0.074457 0.0746094 0.0747606 0.0749105 0.0750593 0.0752135 0.0753655 0.0755164 0.0756662 0.0758151
0.0759697 0.0761226 0.0762739 0.0764236 0.0765719 0.0767247 0.0768743 0.0770225 0.0771696 0.0773161
-1.04583e-05 -8.36666e-06 -6.275e-06 -4.18334e-06 -2.09167e-06 0 3.10153e-05 6.20312e-05 9.30508e-05 0.000124075
0.00015511 0.000186928 0.000218747 0.000250571 0.000282403 0.000314246 0.000344834 0.000375426 0.000406023 0.000436629
0.000467247 0.000496656 0.000526069 0.000555488 0.000584915 0.000614351 0.000642624 0.000670901 0.000699181 0.000727468
0.000755763 0.000782934 0.000810107 0.000837283 0.000864464 0.000891651 0.000917756 0.000943863 0.000969972 0.000996085
0.0010222 0.00104728 0.00107236 0.00109744 0.00112252 0.0011476 0.00117169 0.00119577 0.00121986 0.00124394
0.00126803 0.00129116 0.00131428 0.00133741 0.00136053 0.00138366 0.00140587 0.00142807 0.00145027 0.00147248
0.00149468 0.001516 0.00153731 0.00155863 0.00157994 0.00160126 0.00162172 0.00164219 0.00166265 0.00168311
0.00170357 0.00172321 0.00174286 0.0017625 0.00178214 0.00180178 0.00182063 0.00183948 0.00185834 0.00187719
0.00189604 0.00191414 0.00193223 0.00195033 0.00196842 0.00198651 0.00200388 0.00202124 0.00203861 0.00205597
0.00207333 0.00209 0.00210667 0.00212333 0.00214 0.00215666 0.00216778 0.0021789 0.00219002 0.00220114
0.00221226 0.00222346 0.00223467 0.00224587 0.00225707 0.00226827 0.00227955 0.00229084 0.00230212 0.0023134
0.00232468 0.00233605 0.00234741 0.00235877 0.00237014 0.0023815 0.00239295 0.0024044 0.00241584 0.00242729
0.00243873 0.00245026 0.00246179 0.00247332 0.00248485 0.00249638 0.00250799 0.00251961 0.00253122 0.00254283
0.00255444 0.00256615 0.00257785 0.00258955 0.00260124 0.00261294 0.00262473 0.00263652 0.0026483 0.00266008
0.00267187 0.00268374 0.00269562 0.00270749 0.00271936 0.00273124 0.0027432 0.00275516 0.00276713 0.00277909
0.00279105 0.0028031 0.00281515 0.00282721 0.00283926 0.00285131 0.00286345 0.0028756 0.00288774 0.00289988
0.00291202 0.00292426 0.00293649 0.00294873 0.00296096 0.00297319 0.00298552 0.00299785 0.00301018 0.0030225
0.00303483 0.00304725 0.00305967 0.00307209 0.00308451 0.00309693 0.00310944 0.00312196 0.00313447 0.00314699
0.0031595 0.00317211 0.00318472 0.00319733 0.00320993 0.00322254 0.00323525 0.00324795 0.00326066 0.00327337
0.00328607 0.00329887 0.00331167 0.00332447 0.00333727 0.00335007 0.00336297 0.00337587 0.00338876 0.00340166
0.00341456 0.00342755 0.00344055 0.00345354 0.00346654 0.00347953 0.00349046 0.00350139 0.00351231 0.00352324
0.00353403 0.00353623 0.00353842 0.00354062 0.00354281 0.00354501 0.0035582 0.0035714 0.00358459 0.00359778
0.00361098 0.00362427 0.00363756 0.00365086 0.00366415 0.00367744 0.00369084 0.00370424 0.00371763 0.00373103
0.00374442 0.00375792 0.00377142 0.00378491 0.00379841 0.0038119 0.00382551 0.00383911 0.00385271 0.00386631
0.00387991 0.00389362 0.00390732 0.00392102 0.00393473 0.00394843 0.00396224 0.00397605 0.00398986 0.00400367
0.00401748 0.0040314 0.00404532 0.00405924 0.00407315 0.00408707 0.00410109 0.00411512 0.00412914 0.00414316
0.00415718 0.00417132 0.00418545 0.00419958 0.00421371 0.00422784 0.00424209 0.00425633 0.00427057 0.00428481
0.00429906 0.00431342 0.00432777 0.00434212 0.00435647 0.00437083 0.0043853 0.00439977 0.00441423 0.00442869
0.00444316 0.00445774 0.00447232 0.0044869 0.00450147 0.00451605 0.00453076 0.00454546 0.00456015 0.00457484
0.00458955 0.00460437 0.00461918 0.00463399 0.0046488 0.00466362 0.00467856 0.00469349 0.00470842 0.00472335
0.00473829 0.00475335 0.0047684 0.00478345 0.0047985 0.00481356 0.00482874 0.00484392 0.00485909 0.00487427
0.00488945 0.00490476 0.00492006 0.00493536 0.00495067 0.00496597 0.00498141 0.00499684 0.00501227 0.0050277
0.00504313 0.0050587 0.00507425 0.00508981 0.00510537 0.00512094 0.00513663 0.00515232 0.00516802 0.00518371
0.00519941 0.00521524 0.00523106 0.00524689 0.00526272 0.00527856 0.00529018 0.00530179 0.00531341 0.00532503
0.00533629 0.00534071 0.00534513 0.00534956 0.00535398 0.0053584 0.0053745 0.0053906 0.00540671 0.00542282
0.00543894 0.00545519 0.00547144 0.00548769 0.00550395 0.00552021 0.00553661 0.005553 0.0055694 0.0055858
0.00560221 0.00561877 0.00563531 0.00565186 0.00566842 0.00568498 0.0057017 0.0057184 0.0057351 0.0057518
0.00576852 0.0057854 0.00580226 0.00581912 0.00583598 0.00585286 0.0058699 0.00588693 0.00590395 0.00592097
0.00593803 0.00595523 0.00597243 0.00598961 0.00600681 0.00602403 0.00604141 0.00605877 0.00607613 0.00609349
0.00611088 0.00612844 0.00614599 0.00616352 0.00618107 0.00619864 0.00621638 0.0062341 0.00625182 0.00626955
0.0062873 0.00630523 0.00632314 0.00634105 0.00635897 0.00637691 0.00639502 0.00641312 0.00643122 0.00644934
0.00646748 0.00648578 0.00650408 0.00652239 0.00654071 0.00655905 0.00657756 0.00659606 0.00661458 0.00663311
0.00665166 0.00666083 0.00667 0.00667918 0.00668835 0.00669727 0.00670688 0.00671649 0.00672611 0.00673572
0.00674535 0.00676427 0.00678321 0.00680216 0.00682113 0.00684011 0.00685928 0.00687844 0.00689763 0.00691683
0.00693605 0.00695545 0.00697485 0.00699427 0.00701371 0.00703317 0.00705282 0.00707248 0.00709214 0.00711182
0.00713154 0.00715145 0.00717136 0.00719128 0.00721121 0.00723119 0.00725137 0.00727155 0.00729173 0.00731193
0.00733218 0.00735263 0.00737309 0.00739355 0.00741404 0.00743458 0.00745531 0.00747605 0.00749681 0.0075176
0.00753842 0.00755945 0.00758048 0.00760155 0.00762264 0.00764377 0.00766511 0.00768646 0.00770785 0.00772927
0.00775072 0.00775129 0.00775186 0.00775242 0.00775299 0.00775356 0.00777465 0.00779577 0.00781692 0.0078381
0.00785933 0.00788133 0.00790337 0.00792544 0.00794755 0.0079697 0.00799207 0.00801447 0.0080369 0.00805937
0.0080819 0.00810465 0.00812744 0.00815025 0.00817311 0.00819604 0.00821919 0.00824238 0.0082656 0.00828887
0.0083122 0.00833577 0.00835938 0.00838303 0.00840674 0.0084305 0.00845452 0.00847858 0.00850268 0.00852685
0.00855107 0.00857555 0.00860007 0.00862466 0.0086493 0.00867401 0.00867634 0.00867868 0.00868101 0.00868335
0.00868567 0.00870833 0.00873104 0.00875381 0.00877663 0.00879951 0.00882499 0.00885055 0.00887617 0.00890186
0.00892764 0.00895369 0.00897981 0.009006 0.00903227 0.00905862 0.00908526 0.00911197 0.00913875 0.00916562
0.00919258 0.00921983 0.00924717 0.00927459 0.00930209 0.00932969 0.0093576 0.0093856 0.00941368 0.00944186
0.00947014 0.00949636 0.00952266 0.00954904 0.0095755 0.00960127 0.00960383 0.00960639 0.00960896 0.00961152
0.00961408 0.00964339 0.0096728 0.00970231 0.00973192 0.00976165 0.0097917 0.00982187 0.00985214 0.00988253
0.00991303 0.00994385 0.0099748 0.0100059 0.010037 0.0100683 0.0100999 0.0101317 0.0101636 0.0101955
0.0102276 0.0102601 0.0102927 0.0103253 0.0103581 0.0103911 0.0104243 0.0104577 0.0104912 0.0105249
0.0105586 0.0105638 0.010569 0.0105742 0.0105794 0.0105846 0.0106136 0.0106427 0.0106718 0.0107011
0.0107304 0.0107653 0.0108004 0.0108356 0.0108709 0.0109063 0.010942 0.0109779 0.0110139 0.01105