# Residuals     
# Time          	p               	Ux              	Uy              	k               	epsilon         
0               	N/A             	N/A             	N/A             	N/A             	N/A             
1               	1.00000000e+00	1.00000000e+00	0.00000000e+00	1.00000000e+00	2.21788531e-01
2               	4.00508711e-02	4.28157404e-01	2.76295140e-01	3.48674546e-01	1.34543067e-01
3               	1.80869058e-01	8.93015053e-02	1.44366486e-01	1.81009234e-01	8.92742114e-02
4               	1.32072059e-01	6.31541406e-02	1.12647027e-01	1.35505439e-01	1.54248115e-01
5               	9.68077292e-02	5.68064574e-02	8.06180097e-02	9.68415453e-02	9.18028933e-02
6               	8.01899659e-02	5.20946314e-02	6.82424204e-02	8.11559975e-02	7.41210909e-02
7               	6.78136047e-02	4.76503740e-02	6.43634949e-02	7.47202049e-02	7.75470199e-02
8               	6.19974016e-02	4.40059141e-02	6.27813421e-02	7.13668525e-02	7.47252617e-02
9               	5.86403732e-02	4.15276305e-02	6.16384691e-02	6.87152257e-02	7.19544434e-02
10              	5.60511602e-02	3.90962796e-02	5.75416377e-02	6.61731664e-02	6.83505196e-02
11              	5.57807465e-02	3.67015431e-02	5.38951541e-02	6.31101377e-02	6.36076715e-02
12              	5.62055256e-02	3.42661629e-02	5.11778719e-02	6.05732587e-02	6.03275496e-02
13              	5.59161239e-02	3.22496334e-02	4.94592306e-02	5.80495185e-02	5.59296837e-02
14              	5.50462317e-02	3.02969535e-02	4.82966137e-02	5.58710756e-02	5.27599606e-02
15              	5.28125479e-02	2.83899758e-02	4.73423432e-02	5.40204374e-02	5.14422089e-02
16              	5.16690970e-02	2.64960466e-02	4.62648688e-02	5.23328890e-02	5.01211557e-02
17              	5.06840447e-02	2.50498730e-02	4.59177182e-02	5.06301130e-02	4.83004780e-02
18              	4.92689051e-02	2.35285850e-02	4.51625191e-02	4.90292387e-02	4.60442994e-02
19              	4.83582408e-02	2.20773762e-02	4.47321239e-02	4.74852314e-02	4.40447865e-02
20              	4.73859223e-02	2.06838349e-02	4.41732704e-02	4.59952369e-02	4.16724641e-02
21              	4.60513671e-02	1.94324476e-02	4.36589801e-02	4.46015308e-02	3.96538952e-02
22              	4.46978690e-02	1.82721117e-02	4.29710880e-02	4.32404592e-02	3.76185488e-02
23              	4.38467865e-02	1.71656655e-02	4.21060135e-02	4.19172515e-02	3.58652499e-02
24              	4.33113498e-02	1.61245253e-02	4.14730287e-02	4.05822117e-02	3.38267446e-02
25              	4.26540482e-02	1.51332207e-02	4.05212254e-02	3.92515129e-02	3.15416673e-02
26              	4.25033202e-02	1.41559070e-02	3.95958060e-02	3.79013054e-02	2.94537472e-02
27              	4.18725971e-02	1.32672003e-02	3.87558389e-02	3.65497094e-02	2.72992665e-02
28              	4.14914428e-02	1.24070804e-02	3.78342137e-02	3.52517274e-02	2.53721031e-02
29              	4.29377385e-02	1.16451807e-02	3.69613166e-02	3.39525432e-02	2.35628789e-02
30              	4.22980483e-02	1.09374554e-02	3.59599784e-02	3.26251695e-02	2.20719614e-02
31              	4.30308157e-02	1.02642484e-02	3.49312866e-02	3.12663297e-02	2.02897467e-02
32              	4.21496791e-02	9.64281612e-03	3.39477142e-02	2.99824458e-02	1.89229391e-02
33              	4.25037202e-02	9.11253542e-03	3.29970965e-02	2.86844727e-02	1.75963443e-02
34              	4.25402876e-02	8.62899295e-03	3.20982067e-02	2.74334967e-02	1.65213564e-02
35              	4.19922980e-02	8.21008408e-03	3.12545920e-02	2.62326423e-02	1.54904038e-02
36              	4.08332240e-02	7.84075296e-03	3.04777969e-02	2.50592471e-02	1.45491146e-02
37              	4.00530055e-02	7.55796988e-03	2.97734762e-02	2.39358747e-02	1.36947245e-02
38              	3.83408803e-02	7.29624603e-03	2.91413096e-02	2.28250762e-02	1.30231759e-02
39              	3.66001429e-02	7.08840198e-03	2.85961609e-02	2.17777365e-02	1.24289472e-02
40              	3.61592460e-02	6.93192312e-03	2.81791624e-02	2.07844749e-02	1.18355444e-02
41              	3.47102190e-02	6.79900481e-03	2.77891389e-02	1.98560347e-02	1.13003045e-02
42              	3.33606527e-02	6.70091431e-03	2.75142291e-02	1.89233459e-02	1.07839205e-02
43              	3.23227414e-02	6.62569338e-03	2.72771785e-02	1.80861734e-02	1.03876015e-02
44              	3.09777799e-02	6.57673299e-03	2.71006322e-02	1.73212155e-02	1.00172895e-02
45              	3.07328514e-02	6.54703724e-03	2.70317268e-02	1.66366619e-02	9.71010285e-03
46              	3.00165092e-02	6.52183791e-03	2.69699729e-02	1.60373597e-02	9.48738667e-03
47              	2.92558985e-02	6.51732000e-03	2.69699179e-02	1.54987809e-02	9.31230108e-03
48              	2.90419520e-02	6.52238303e-03	2.70244080e-02	1.50194739e-02	9.20770139e-03
49              	2.83735353e-02	6.53027953e-03	2.70543413e-02	1.45964394e-02	9.15042059e-03
50              	2.80752818e-02	6.54485375e-03	2.70693475e-02	1.42240198e-02	9.10830861e-03
51              	2.79931172e-02	6.55856439e-03	2.71598426e-02	1.39017057e-02	9.10590811e-03
52              	2.77516330e-02	6.57504617e-03	2.72418161e-02	1.36217798e-02	9.12535297e-03
53              	2.75198643e-02	6.59089661e-03	2.73721446e-02	1.33771214e-02	9.15412538e-03
54              	2.75279207e-02	6.60857849e-03	2.75141244e-02	1.31647759e-02	9.19265870e-03
55              	2.74001417e-02	6.62700053e-03	2.76559756e-02	1.29687748e-02	9.21127801e-03
56              	2.74789236e-02	6.63933925e-03	2.78366118e-02	1.28004868e-02	9.28070806e-03
57              	2.72861567e-02	6.66184942e-03	2.79971701e-02	1.26474850e-02	9.32749344e-03
58              	2.66908704e-02	6.67938745e-03	2.81465655e-02	1.24959531e-02	9.33027169e-03
59              	2.67162535e-02	6.69006657e-03	2.82940308e-02	1.23665397e-02	9.38742978e-03
60              	2.66883518e-02	6.71251933e-03	2.85025927e-02	1.22347295e-02	9.38858677e-03
61              	2.59775261e-02	6.71871900e-03	2.86717088e-02	1.21219024e-02	9.43574953e-03
62              	2.58736853e-02	6.73649549e-03	2.88242557e-02	1.19997923e-02	9.41210904e-03
63              	2.58685428e-02	6.73982204e-03	2.89473446e-02	1.18961120e-02	9.44360848e-03
64              	2.52677303e-02	6.75552403e-03	2.91454607e-02	1.17825333e-02	9.39688990e-03
65              	2.55262501e-02	6.76045556e-03	2.93546915e-02	1.16739020e-02	9.38169892e-03
66              	2.52430225e-02	6.76827547e-03	2.95409614e-02	1.15716438e-02	9.35724396e-03
67              	2.51214417e-02	6.77288111e-03	2.97350539e-02	1.14742637e-02	9.33446370e-03
68              	2.50536727e-02	6.77965873e-03	2.99634917e-02	1.13813341e-02	9.30426670e-03
69              	2.48764315e-02	6.78224714e-03	3.01553993e-02	1.12920744e-02	9.26647863e-03
70              	2.47457168e-02	6.78314787e-03	3.03464794e-02	1.12033178e-02	9.22655320e-03
71              	2.45545035e-02	6.78335232e-03	3.05560768e-02	1.11189717e-02	9.18067028e-03
72              	2.46144760e-02	6.78187216e-03	3.07845623e-02	1.10449800e-02	9.13110684e-03
73              	2.44182536e-02	6.77733209e-03	3.10177966e-02	1.09749025e-02	9.08054117e-03
74              	2.41697487e-02	6.76900525e-03	3.12139516e-02	1.09144587e-02	9.02960771e-03
75              	2.41944630e-02	6.76308346e-03	3.14775892e-02	1.08586873e-02	8.97983144e-03
76              	2.36400642e-02	6.75128822e-03	3.17690283e-02	1.08082473e-02	8.92728257e-03
77              	2.37307213e-02	6.73929306e-03	3.20856455e-02	1.07627177e-02	8.88010299e-03
78              	2.40106672e-02	6.72362029e-03	3.23515969e-02	1.07231829e-02	8.83072403e-03
79              	2.33701420e-02	6.70151627e-03	3.25743618e-02	1.06877301e-02	8.78292477e-03
80              	2.33515593e-02	6.67879260e-03	3.28599332e-02	1.06579652e-02	8.73703903e-03
81              	2.36562698e-02	6.65763500e-03	3.31992157e-02	1.06353520e-02	8.69377197e-03
82              	2.37949318e-02	6.63437511e-03	3.35592373e-02	1.06182773e-02	8.65476655e-03
83              	2.40373459e-02	6.61052472e-03	3.39200571e-02	1.06059539e-02	8.61845271e-03
84              	2.40943582e-02	6.58634328e-03	3.43031284e-02	1.06000819e-02	8.58812646e-03
85              	2.40983811e-02	6.55792448e-03	3.46963639e-02	1.05976774e-02	8.56153026e-03
86              	2.39844340e-02	6.52649888e-03	3.51078834e-02	1.05988574e-02	8.53952444e-03
87              	2.33099780e-02	6.49615641e-03	3.54404374e-02	1.06008441e-02	8.51666554e-03
88              	2.31227963e-02	6.46005414e-03	3.58223080e-02	1.06056250e-02	8.49560436e-03
89              	2.33337041e-02	6.42141491e-03	3.62545000e-02	1.06122816e-02	8.48530904e-03
90              	2.36996485e-02	6.38220040e-03	3.67206954e-02	1.06191934e-02	8.48196402e-03
91              	2.34742804e-02	6.33968144e-03	3.71891107e-02	1.06245137e-02	8.48007843e-03
92              	2.36353604e-02	6.29551540e-03	3.76970747e-02	1.06288093e-02	8.48817448e-03
93              	2.38863049e-02	6.25084497e-03	3.82062330e-02	1.06323720e-02	8.50159825e-03
94              	2.37140805e-02	6.20347506e-03	3.86935065e-02	1.06342790e-02	8.51761525e-03
95              	2.36980464e-02	6.15729495e-03	3.91710907e-02	1.06353511e-02	8.54203338e-03
96              	2.38798661e-02	6.11481627e-03	3.96935889e-02	1.06357261e-02	8.57403690e-03
97              	2.41449201e-02	6.07490593e-03	4.02553812e-02	1.06352842e-02	8.60565319e-03
98              	2.49240132e-02	6.03972814e-03	4.08205041e-02	1.06363424e-02	8.65035275e-03
99              	2.47218774e-02	6.00237767e-03	4.14966688e-02	1.06362431e-02	8.69302450e-03
100             	2.41960732e-02	5.97414910e-03	4.16154227e-02	1.06357209e-02	8.72138843e-03
101             	2.56904748e-02	5.94967042e-03	4.18804036e-02	1.06391668e-02	8.75390868e-03
102             	2.52212167e-02	5.92312175e-03	4.20107915e-02	1.06381144e-02	8.78335864e-03
103             	2.56921467e-02	5.89732165e-03	4.21161327e-02	1.06335402e-02	8.80476515e-03
104             	2.66110249e-02	5.87562328e-03	4.21818345e-02	1.06250362e-02	8.82495386e-03
105             	2.52642253e-02	5.85062084e-03	4.20336405e-02	1.06116662e-02	8.84525146e-03
106             	2.56000284e-02	5.82055766e-03	4.18045246e-02	1.05950488e-02	8.86232202e-03
107             	2.59066079e-02	5.79678501e-03	4.14478539e-02	1.05753609e-02	8.87522976e-03
108             	2.59894874e-02	5.76173822e-03	4.13021747e-02	1.05523195e-02	8.88408251e-03
109             	2.61254678e-02	5.72914434e-03	4.07489250e-02	1.05279680e-02	8.89525669e-03
110             	2.68463072e-02	5.68994893e-03	4.04036339e-02	1.04985371e-02	8.90111864e-03
111             	2.68130237e-02	5.64807728e-03	3.98063927e-02	1.04689853e-02	8.90988226e-03
112             	2.76418323e-02	5.60191198e-03	3.92428544e-02	1.04358157e-02	8.91034095e-03
113             	2.73165377e-02	5.54790807e-03	3.85676193e-02	1.03999124e-02	8.91174249e-03
114             	2.71231602e-02	5.48990594e-03	3.77087871e-02	1.03624643e-02	8.90897911e-03
115             	2.82165634e-02	5.43343574e-03	3.70733503e-02	1.03262643e-02	8.90218367e-03
116             	2.79242259e-02	5.36723545e-03	3.63331390e-02	1.02839493e-02	8.89945129e-03
117             	2.74391312e-02	5.30159798e-03	3.54502148e-02	1.02403867e-02	8.87933084e-03
118             	2.71970627e-02	5.23140234e-03	3.45963371e-02	1.01952013e-02	8.84044368e-03
119             	2.69806388e-02	5.16186397e-03	3.38370582e-02	1.01472069e-02	8.80188106e-03
120             	2.70720631e-02	5.08896154e-03	3.30796163e-02	1.00969977e-02	8.76190775e-03
121             	2.66179440e-02	5.01351619e-03	3.22999866e-02	1.00448206e-02	8.70619180e-03
122             	2.63362416e-02	4.93725468e-03	3.15115386e-02	9.99099634e-03	8.62990371e-03
123             	2.58968706e-02	4.85971795e-03	3.08153108e-02	9.93050270e-03	8.56214514e-03
124             	2.54917421e-02	4.78094588e-03	3.02106387e-02	9.87279885e-03	8.49945309e-03
125             	2.53958972e-02	4.70293901e-03	2.96993597e-02	9.81682327e-03	8.41621826e-03
126             	2.50758970e-02	4.62719953e-03	2.91992296e-02	9.75780087e-03	8.32931248e-03
127             	2.38397047e-02	4.55545961e-03	2.87733008e-02	9.69517429e-03	8.23820343e-03
128             	2.39308624e-02	4.48347068e-03	2.85051587e-02	9.63360823e-03	8.14815425e-03
129             	2.29638323e-02	4.41768555e-03	2.82122714e-02	9.57262188e-03	8.04485880e-03
130             	2.30323906e-02	4.35601886e-03	2.80232572e-02	9.51034106e-03	7.94099913e-03
131             	2.35600390e-02	4.30182985e-03	2.77873882e-02	9.44761116e-03	7.83147192e-03
132             	2.33596419e-02	4.24858613e-03	2.75429771e-02	9.38515926e-03	7.71773724e-03
133             	2.21752118e-02	4.19825592e-03	2.71840746e-02	9.32385637e-03	7.60630767e-03
134             	2.17884812e-02	4.15404909e-03	2.70048189e-02	9.25877603e-03	7.49149969e-03
135             	2.15063661e-02	4.11449571e-03	2.67607619e-02	9.19333139e-03	7.37851722e-03
136             	2.14306003e-02	4.07929425e-03	2.65390392e-02	9.12623970e-03	7.26665318e-03
137             	2.06918077e-02	4.04485287e-03	2.62500270e-02	9.05814595e-03	7.14880678e-03
138             	2.06518518e-02	4.01712376e-03	2.60418867e-02	8.98970838e-03	7.03589358e-03
139             	2.05009220e-02	3.99293775e-03	2.57931734e-02	8.92131039e-03	6.92492826e-03
140             	2.01962867e-02	3.97087147e-03	2.55686297e-02	8.85405125e-03	6.81223557e-03
141             	1.99263017e-02	3.95086238e-03	2.53323712e-02	8.78875534e-03	6.70207874e-03
142             	1.95080419e-02	3.93118380e-03	2.50773092e-02	8.72656283e-03	6.59272330e-03
143             	1.94688064e-02	3.91235398e-03	2.48096939e-02	8.66619159e-03	6.48911633e-03
144             	1.95623749e-02	3.89406206e-03	2.45362618e-02	8.60815059e-03	6.38321634e-03
145             	1.87927901e-02	3.87217236e-03	2.42571430e-02	8.55283446e-03	6.27636536e-03
146             	1.86246928e-02	3.85000785e-03	2.39674241e-02	8.49912594e-03	6.17257973e-03
147             	1.83487784e-02	3.82536528e-03	2.36714001e-02	8.44824116e-03	6.07163995e-03
148             	1.81475108e-02	3.79827594e-03	2.33683862e-02	8.40074069e-03	5.96847846e-03
149             	1.80697163e-02	3.76965069e-03	2.31006877e-02	8.35518377e-03	5.86788160e-03
150             	1.78596642e-02	3.73804192e-03	2.28267171e-02	8.31277874e-03	5.76940494e-03
151             	1.79572504e-02	3.70360492e-03	2.25500095e-02	8.27199558e-03	5.67302624e-03
152             	1.81118365e-02	3.66847140e-03	2.22784035e-02	8.23349221e-03	5.57380254e-03
153             	1.75816510e-02	3.62905045e-03	2.19929025e-02	8.19744189e-03	5.47167758e-03
154             	1.75867083e-02	3.58808440e-03	2.17185581e-02	8.16318071e-03	5.37309735e-03
155             	1.75806735e-02	3.54567778e-03	2.14725674e-02	8.12934483e-03	5.27444256e-03
156             	1.72596319e-02	3.49956991e-03	2.12134851e-02	8.09592847e-03	5.17524871e-03
157             	1.64167934e-02	3.45387863e-03	2.08500418e-02	8.06360419e-03	5.07775566e-03
158             	1.62849660e-02	3.40456333e-03	2.05450081e-02	8.03252795e-03	4.98138750e-03
159             	1.64307024e-02	3.35522826e-03	2.02828536e-02	8.00115452e-03	4.89155299e-03
160             	1.67487879e-02	3.30399605e-03	2.00854556e-02	7.96786875e-03	4.79999834e-03
161             	1.63660802e-02	3.25102448e-03	1.98398588e-02	7.92821896e-03	4.70599571e-03
162             	1.62288252e-02	3.19847120e-03	1.95844845e-02	7.88248935e-03	4.61538388e-03
163             	1.61119105e-02	3.14645537e-03	1.93820737e-02	7.82992086e-03	4.52639807e-03
164             	1.61742846e-02	3.09391765e-03	1.91796929e-02	7.77028546e-03	4.44260528e-03
165             	1.63342086e-02	3.04201739e-03	1.89920874e-02	7.70044775e-03	4.35871230e-03
166             	1.60924014e-02	2.98695550e-03	1.88348451e-02	7.61903680e-03	4.27131909e-03
167             	1.60136757e-02	2.93661546e-03	1.86625586e-02	7.52976657e-03	4.18643477e-03
168             	1.58083355e-02	2.88322260e-03	1.85280955e-02	7.43143576e-03	4.10292358e-03
169             	1.58971789e-02	2.82884283e-03	1.83774466e-02	7.32301614e-03	4.02626912e-03
170             	1.64268423e-02	2.77406752e-03	1.83843009e-02	7.20253916e-03	3.94176943e-03
171             	1.63576278e-02	2.71978986e-03	1.83356822e-02	7.07248794e-03	3.85900338e-03
172             	1.56648439e-02	2.66631853e-03	1.81248913e-02	6.93103724e-03	3.77265606e-03
173             	1.57260348e-02	2.61616841e-03	1.80372182e-02	6.77808765e-03	3.68506470e-03
174             	1.72321369e-02	2.56275718e-03	1.80545904e-02	6.62044084e-03	3.60427724e-03
175             	1.61023560e-02	2.51462348e-03	1.78868263e-02	6.44837507e-03	3.51658810e-03
176             	1.62814492e-02	2.46019543e-03	1.79141891e-02	6.26765192e-03	3.42318050e-03
177             	1.57009029e-02	2.40707435e-03	1.75367145e-02	6.07759379e-03	3.33149513e-03
178             	1.52599429e-02	2.34752682e-03	1.74044170e-02	5.88098791e-03	3.23690811e-03
179             	1.55136761e-02	2.29369672e-03	1.71405282e-02	5.67478327e-03	3.14583164e-03
180             	1.44964148e-02	2.22959091e-03	1.68971694e-02	5.46195875e-03	3.04693665e-03
181             	1.43580687e-02	2.16897150e-03	1.65274161e-02	5.24497349e-03	2.95371771e-03
182             	1.42039621e-02	2.10334402e-03	1.63050782e-02	5.02827028e-03	2.86276000e-03
183             	1.36300811e-02	2.03779157e-03	1.57809963e-02	4.80948158e-03	2.77008313e-03
184             	1.31663878e-02	1.97481726e-03	1.53030719e-02	4.59416748e-03	2.68159940e-03
185             	1.24884167e-02	1.91230953e-03	1.48856766e-02	4.38617015e-03	2.59776364e-03
186             	1.23098469e-02	1.85180263e-03	1.43949557e-02	4.18526085e-03	2.51536161e-03
187             	1.19496676e-02	1.79352457e-03	1.38128842e-02	3.99218670e-03	2.43519769e-03
188             	1.15641183e-02	1.73761918e-03	1.31963437e-02	3.81007209e-03	2.36260975e-03
189             	1.12553715e-02	1.68416165e-03	1.25793275e-02	3.63815558e-03	2.29412551e-03
190             	1.07222605e-02	1.63132717e-03	1.19719155e-02	3.48045163e-03	2.22702397e-03
191             	1.02668229e-02	1.57766955e-03	1.13635529e-02	3.33655793e-03	2.16435887e-03
192             	9.90235732e-03	1.52400858e-03	1.07760908e-02	3.20617581e-03	2.10250464e-03
193             	9.41760311e-03	1.46903629e-03	1.02140361e-02	3.09141548e-03	2.04011886e-03
194             	8.94946424e-03	1.41155863e-03	9.69632032e-03	2.99220758e-03	1.97709555e-03
195             	8.76762122e-03	1.35251730e-03	9.18938869e-03	2.90523021e-03	1.91499726e-03
196             	9.07823689e-03	1.29287139e-03	8.78456201e-03	2.82501797e-03	1.84809164e-03
197             	8.77896486e-03	1.23371250e-03	8.39681832e-03	2.75290224e-03	1.77831905e-03
198             	7.97443653e-03	1.17306054e-03	7.96584813e-03	2.68513116e-03	1.71362139e-03
199             	8.01782964e-03	1.11312912e-03	7.67687950e-03	2.61454602e-03	1.64225858e-03
200             	7.71315812e-03	1.05663851e-03	7.43002294e-03	2.55056449e-03	1.57014480e-03
201             	7.13073848e-03	1.00282401e-03	7.17087643e-03	2.48061559e-03	1.50178065e-03
202             	7.20878936e-03	9.51101831e-04	7.03153019e-03	2.40472412e-03	1.43055809e-03
203             	6.77935083e-03	9.02144542e-04	6.82601181e-03	2.32471074e-03	1.36268826e-03
204             	6.36131875e-03	8.56541802e-04	6.63482980e-03	2.24071130e-03	1.29461982e-03
205             	6.31862568e-03	8.15179237e-04	6.50395011e-03	2.15628279e-03	1.22992009e-03
206             	5.80643119e-03	7.75720583e-04	6.23798042e-03	2.07222473e-03	1.17444281e-03
207             	5.83298115e-03	7.41174829e-04	6.06714475e-03	1.98647932e-03	1.11658934e-03
208             	5.54223033e-03	7.09941187e-04	5.89542035e-03	1.90199455e-03	1.06267049e-03
209             	5.28064405e-03	6.81364588e-04	5.67681655e-03	1.82027305e-03	1.01613801e-03
210             	5.04801107e-03	6.55482423e-04	5.45626030e-03	1.73990914e-03	9.73118134e-04
211             	4.67552514e-03	6.32439796e-04	5.23843701e-03	1.66292918e-03	9.34033889e-04
212             	4.49155071e-03	6.11951893e-04	5.04262410e-03	1.59007219e-03	9.00061622e-04
213             	4.35761096e-03	5.94376852e-04	4.85042584e-03	1.52020270e-03	8.68968923e-04
214             	4.11841192e-03	5.78354626e-04	4.65609325e-03	1.45309910e-03	8.39532006e-04
215             	3.93097723e-03	5.63784192e-04	4.45527908e-03	1.38939466e-03	8.14401056e-04
216             	3.94324740e-03	5.50825344e-04	4.26841863e-03	1.33054344e-03	7.96681677e-04
217             	4.03238733e-03	5.39062760e-04	4.09363182e-03	1.27346323e-03	7.75836685e-04
218             	3.67480691e-03	5.26951209e-04	3.93723208e-03	1.22112017e-03	7.57990903e-04
219             	3.66968027e-03	5.15154647e-04	3.77962552e-03	1.17303606e-03	7.46537643e-04
220             	3.66101918e-03	5.03035431e-04	3.64435551e-03	1.12732753e-03	7.32675271e-04
221             	3.34940603e-03	4.89896618e-04	3.49780398e-03	1.08591583e-03	7.20139430e-04
222             	3.41953602e-03	4.77248240e-04	3.35624784e-03	1.04915178e-03	7.14252539e-04
223             	3.46949701e-03	4.64606468e-04	3.21645361e-03	1.01408746e-03	7.03964101e-04
224             	3.21112876e-03	4.50650768e-04	3.09864770e-03	9.83268810e-04	6.92804250e-04
225             	3.21445191e-03	4.36835750e-04	2.99216978e-03	9.55904213e-04	6.83067807e-04
226             	3.44551130e-03	4.23563573e-04	2.93030368e-03	9.31021173e-04	6.71671212e-04
227             	3.31050420e-03	4.09478485e-04	2.84073785e-03	9.08187491e-04	6.59698196e-04
228             	3.34087177e-03	3.96129879e-04	2.73695651e-03	8.88194871e-04	6.48786986e-04
229             	2.98424256e-03	3.82450369e-04	2.64600149e-03	8.68214767e-04	6.34188336e-04
230             	2.94071619e-03	3.71178025e-04	2.54771561e-03	8.50554735e-04	6.19119797e-04
231             	2.95047769e-03	3.56808572e-04	2.49476921e-03	8.33174853e-04	6.08177694e-04
232             	3.40375185e-03	3.47629254e-04	2.46218728e-03	8.14702773e-04	5.91039659e-04
233             	3.33910445e-03	3.33717607e-04	2.43892230e-03	7.95457929e-04	5.73256924e-04
234             	3.54503233e-03	3.24037568e-04	2.43390835e-03	7.77089603e-04	5.59834379e-04
235             	3.56326376e-03	3.11576421e-04	2.34175639e-03	7.55074408e-04	5.42558600e-04
236             	3.53146215e-03	3.01661739e-04	2.36886155e-03	7.34610766e-04	5.24321811e-04
237             	3.53047752e-03	2.92574587e-04	2.24253976e-03	7.12634616e-04	5.12789590e-04
238             	3.66619770e-03	2.82475670e-04	2.27786961e-03	6.90739650e-04	4.94327806e-04
239             	3.20248088e-03	2.76052745e-04	2.09501649e-03	6.67751985e-04	4.77053055e-04
240             	3.27563136e-03	2.65120289e-04	2.17462423e-03	6.47749558e-04	4.63971801e-04
241             	3.06054342e-03	2.61297065e-04	1.95403254e-03	6.24488151e-04	4.48206208e-04
242             	2.77648669e-03	2.49943848e-04	2.03771129e-03	6.03382085e-04	4.30160774e-04
243             	2.70307766e-03	2.46763215e-04	1.82378574e-03	5.84019818e-04	4.20873545e-04
244             	2.61784798e-03	2.36624938e-04	1.87323181e-03	5.62504294e-04	4.04666560e-04
245             	2.23782236e-03	2.32343101e-04	1.67180177e-03	5.43514907e-04	3.91198697e-04
246             	2.14127604e-03	2.22948557e-04	1.68239530e-03	5.24691455e-04	3.77626259e-04
247             	1.97652908e-03	2.17876372e-04	1.51910486e-03	5.06947648e-04	3.66371298e-04
248             	1.85897464e-03	2.09690935e-04	1.49636046e-03	4.90014942e-04	3.54266161e-04
249             	1.65346922e-03	2.02910046e-04	1.36182685e-03	4.74258580e-04	3.42783012e-04
250             	1.52517951e-03	1.95644869e-04	1.31866425e-03	4.61021107e-04	3.35158657e-04
251             	1.69310290e-03	1.88429069e-04	1.23368388e-03	4.47070151e-04	3.24336399e-04
252             	1.40948095e-03	1.80769558e-04	1.17529206e-03	4.34766688e-04	3.10097990e-04
253             	1.30188428e-03	1.73123633e-04	1.10961026e-03	4.24238059e-04	3.00879286e-04
254             	1.33390946e-03	1.66101672e-04	1.06027623e-03	4.14485156e-04	2.90547333e-04
255             	1.21011538e-03	1.58581570e-04	1.01207666e-03	4.05708142e-04	2.77005836e-04
256             	1.19282461e-03	1.51137913e-04	9.66497669e-04	3.98284039e-04	2.65382191e-04
257             	1.29987186e-03	1.44088889e-04	9.30044064e-04	3.91956110e-04	2.58566052e-04
258             	1.44749033e-03	1.37439620e-04	8.97441460e-04	3.82827086e-04	2.45072632e-04
259             	1.09790273e-03	1.30312480e-04	8.51058462e-04	3.75662442e-04	2.31740683e-04
260             	1.09885813e-03	1.23788148e-04	8.16740160e-04	3.68094024e-04	2.23119523e-04
261             	1.07905382e-03	1.17631716e-04	7.89384307e-04	3.58178902e-04	2.10439689e-04
262             	8.92609225e-04	1.11572646e-04	7.64808022e-04	3.48389292e-04	1.97669496e-04
