# vtk DataFile Version 2.0
tracks
ASCII
DATASET POLYDATA
POINTS 12050 float
-0.0206 0.00100004 1e-05 -0.02058 0.00100004 1e-05 -0.02056 0.00100003 1e-05 -0.02054 0.00100002
1e-05 -0.02052 0.00100001 1e-05 -0.0205 0.001 1e-05 -0.0202034 0.0009998 1e-05
-0.0199069 0.000999311 1e-05 -0.0196103 0.000998549 1e-05 -0.0193138 0.000997513 1e-05 -0.0190172
0.0009962 1e-05 -0.0187133 0.000994768 1e-05 -0.0184094 0.000993413 1e-05 -0.0181054 0.000992136
1e-05 -0.0178015 0.000990939 1e-05 -0.0174976 0.00098982 1e-05 -0.0172058 0.000988842 1e-05
-0.016914 0.000987893 1e-05 -0.0166223 0.000987012 1e-05 -0.0163305 0.0009862 1e-05 -0.0160387
0.000985455 1e-05 -0.0157586 0.000984821 1e-05 -0.0154785 0.000984218 1e-05 -0.0151983 0.000983664
1e-05 -0.0149182 0.000983159 1e-05 -0.0146381 0.000982703 1e-05 -0.0143692 0.000982319 1e-05
-0.0141002 0.000981944 1e-05 -0.0138313 0.000981599 1e-05 -0.0135623 0.000981286 1e-05 -0.0132934
0.000981004 1e-05 -0.0130352 0.000980767 1e-05 -0.012777 0.000980542 1e-05 -0.0125189 0.000980339
1e-05 -0.0122607 0.000980159 1e-05 -0.0120025 0.000980001 1e-05 -0.0117546 0.000979871 1e-05
-0.0115068 0.000979755 1e-05 -0.0112589 0.000979655 1e-05 -0.0110111 0.000979571 1e-05 -0.0107632
0.000979503 1e-05 -0.0105252 0.000979449 1e-05 -0.0102873 0.000979407 1e-05 -0.0100493 0.000979376
1e-05 -0.00981134 0.000979356 1e-05 -0.00957337 0.000979347 1e-05 -0.00934491 0.000979344 1e-05
-0.00911645 0.000979351 1e-05 -0.008888 0.000979365 1e-05 -0.00865954 0.000979387 1e-05 -0.00843108
0.000979416 1e-05 -0.00821175 0.000979447 1e-05 -0.00799242 0.000979486 1e-05 -0.00777309 0.000979531
1e-05 -0.00755376 0.000979582 1e-05 -0.00733443 0.000979639 1e-05 -0.00712386 0.000979695 1e-05
-0.0069133 0.000979758 1e-05 -0.00670273 0.000979826 1e-05 -0.00649217 0.000979898 1e-05 -0.0062816
0.000979976 1e-05 -0.00607945 0.000980051 1e-05 -0.00587729 0.000980133 1e-05 -0.00567514 0.000980219
1e-05 -0.00547298 0.00098031 1e-05 -0.00527083 0.000980405 1e-05 -0.00507675 0.000980497 1e-05
-0.00488267 0.000980595 1e-05 -0.0046886 0.000980698 1e-05 -0.00449452 0.000980805 1e-05 -0.00430044
0.000980917 1e-05 -0.00411412 0.000981026 1e-05 -0.0039278 0.000981141 1e-05 -0.00374147 0.000981261
1e-05 -0.00355515 0.000981386 1e-05 -0.00336883 0.000981516 1e-05 -0.00318995 0.000981644 1e-05
-0.00301107 0.000981779 1e-05 -0.00283219 0.000981921 1e-05 -0.00265331 0.00098207 1e-05 -0.00247443
0.000982226 1e-05 -0.0023027 0.00098238 1e-05 -0.00213097 0.000982545 1e-05 -0.00195923 0.00098272
1e-05 -0.0017875 0.000982904 1e-05 -0.00161577 0.000983097 1e-05 -0.0014509 0.00098329 1e-05
-0.00128603 0.000983498 1e-05 -0.00112116 0.000983727 1e-05 -0.000956289 0.000983976 1e-05 -0.000791418
0.000984245 1e-05 -0.000633134 0.000984528 1e-05 -0.000474851 0.00098484 1e-05 -0.000316567 0.000985174
1e-05 -0.000158284 0.00098553 1e-05 0 0.000985908 1e-05 0.000105677 0.000986161 1e-05
0.000211355 0.000986435 1e-05 0.000317032 0.000986725 1e-05 0.000422709 0.00098703 1e-05 0.000528387
0.000987351 1e-05 0.000634886 0.000987681 1e-05 0.000741384 0.000988057 1e-05 0.000847882 0.000988457
1e-05 0.000954381 0.000988881 1e-05 0.00106088 0.000989327 1e-05 0.00116821 0.000989787 1e-05
0.00127554 0.000990292 1e-05 0.00138286 0.000990808 1e-05 0.00149019 0.000991333 1e-05 0.00159752
0.000991869 1e-05 0.00170568 0.00099238 1e-05 0.00181384 0.000992907 1e-05 0.00192201 0.000993422
1e-05 0.00203017 0.000993926 1e-05 0.00213833 0.000994419 1e-05 0.00224733 0.000994871 1e-05
0.00235633 0.000995325 1e-05 0.00246534 0.000995761 1e-05 0.00257434 0.00099618 1e-05 0.00268334
0.000996581 1e-05 0.00279319 0.00099694 1e-05 0.00290304 0.0009973 1e-05 0.00301289 0.000997642
1e-05 0.00312274 0.000997968 1e-05 0.00323259 0.000998277 1e-05 0.00334329 0.000998545 1e-05
0.003454 0.000998814 1e-05 0.0035647 0.000999067 1e-05 0.00367541 0.000999304 1e-05 0.00378611
0.000999524 1e-05 0.00389767 0.000999699 1e-05 0.00400924 0.000999879 1e-05 0.0041208 0.00100004
1e-05 0.00423237 0.00100019 1e-05 0.00434393 0.00100032 1e-05 0.00445636 0.0010004 1e-05
0.00456879 0.00100049 1e-05 0.00468123 0.00100057 1e-05 0.00479366 0.00100063 1e-05 0.00490609
0.00100067 1e-05 0.0050194 0.00100066 1e-05 0.0051327 0.00100067 1e-05 0.00524601 0.00100066
1e-05 0.00535931 0.00100063 1e-05 0.00547262 0.00100059 1e-05 0.00558681 0.00100049 1e-05
0.005701 0.00100041 1e-05 0.00581518 0.00100032 1e-05 0.00592937 0.00100021 1e-05 0.00604356
0.00100008 1e-05 0.00615863 0.000999904 1e-05 0.00627371 0.00099974 1e-05 0.00638878 0.000999569
1e-05 0.00650386 0.000999384 1e-05 0.00661893 0.000999177 1e-05 0.0067349 0.000998923 1e-05
0.00685087 0.000998682 1e-05 0.00696684 0.000998436 1e-05 0.00708281 0.000998177 1e-05 0.00719878
0.000997895 1e-05 0.00731565 0.00099757 1e-05 0.00743252 0.000997255 1e-05 0.00754939 0.000996938
1e-05 0.00766626 0.000996607 1e-05 0.00778313 0.000996253 1e-05 0.00790091 0.000995861 1e-05
0.00801869 0.000995475 1e-05 0.00813647 0.000995088 1e-05 0.00825425 0.000994688 1e-05 0.00837203
0.000994265 1e-05 0.00849073 0.000993806 1e-05 0.00860942 0.000993351 1e-05 0.00872812 0.000992896
1e-05 0.00884681 0.000992428 1e-05 0.00896551 0.000991938 1e-05 0.00908513 0.000991415 1e-05
0.00920475 0.000990894 1e-05 0.00932436 0.000990372 1e-05 0.00944398 0.000989838 1e-05 0.0095636
0.000989282 1e-05 0.00968414 0.000988698 1e-05 0.00980468 0.000988113 1e-05 0.00992522 0.000987525
1e-05 0.0100458 0.000986926 1e-05 0.0101663 0.000986307 1e-05 0.0102878 0.000985663 1e-05
0.0104093 0.000985015 1e-05 0.0105308 0.000984363 1e-05 0.0106523 0.0009837 1e-05 0.0107738
0.00098302 1e-05 0.0108962 0.000982317 1e-05 0.0110186 0.000981608 1e-05 0.0111411 0.000980894
1e-05 0.0112635 0.000980168 1e-05 0.0113859 0.000979429 1e-05 0.0115093 0.000978669 1e-05
0.0116327 0.000977901 1e-05 0.011756 0.000977125 1e-05 0.0118794 0.000976339 1e-05 0.0120028
0.000975542 1e-05 0.0121271 0.000974726 1e-05 0.0122515 0.000973901 1e-05 0.0123758 0.000973066
1e-05 0.0125002 0.000972221 1e-05 0.0126245 0.000971367 1e-05 0.0127498 0.000970497 1e-05
0.0128751 0.000969615 1e-05 0.0130005 0.000968723 1e-05 0.0131258 0.000967821 1e-05 0.0132511
0.000966911 1e-05 0.0133774 0.000965988 1e-05 0.0135037 0.000965051 1e-05 0.0136299 0.000964102
1e-05 0.0137562 0.000963144 1e-05 0.0138825 0.000962181 1e-05 0.0140098 0.000961205 1e-05
0.014137 0.000960215 1e-05 0.0142643 0.00095921 1e-05 0.0143915 0.000958198 1e-05 0.0145188
0.000957182 1e-05 0.0146471 0.000956154 1e-05 0.0147753 0.000955111 1e-05 0.0149036 0.000954052
1e-05 0.0150318 0.000952986 1e-05 0.0151601 0.000951918 1e-05 0.0152893 0.000950839 1e-05
0.0154186 0.000949745 1e-05 0.0155478 0.000948633 1e-05 0.0156771 0.000947515 1e-05 0.0158063
0.000946396 1e-05 0.0159366 0.000945267 1e-05 0.0160668 0.000944121 1e-05 0.0161971 0.000942959
1e-05 0.0163273 0.00094179 1e-05 0.0164576 0.000940621 1e-05 0.0165889 0.000939442 1e-05
0.0167201 0.000938245 1e-05 0.0168514 0.000937034 1e-05 0.0169826 0.000935816 1e-05 0.0171139
0.000934596 1e-05 0.0172462 0.000933368 1e-05 0.0173785 0.000932121 1e-05 0.0175108 0.000930861
1e-05 0.0176431 0.000929594 1e-05 0.0177754 0.000928325 1e-05 0.0179087 0.000927048 1e-05
0.018042 0.000925751 1e-05 0.0181754 0.000924443 1e-05 0.0183087 0.000923128 1e-05 0.018442
0.000921809 1e-05 0.0185763 0.000920484 1e-05 0.0187107 0.000919138 1e-05 0.018845 0.000917781
1e-05 0.0189794 0.000916418 1e-05 0.0191137 0.000915051 1e-05 0.0192491 0.000913676 1e-05
0.0193845 0.000912281 1e-05 0.0195199 0.000910877 1e-05 0.0196553 0.000909466 1e-05 0.0197907
0.00090805 1e-05 0.0199272 0.000906626 1e-05 0.0200636 0.000905181 1e-05 0.0202001 0.000903729
1e-05 0.0203365 0.00090227 1e-05 0.020473 0.000900805 1e-05 0.0206105 0.000899332 1e-05
0.020748 0.000897839 1e-05 0.0208856 0.000896339 1e-05 0.0210231 0.000894833 1e-05 0.0211606
0.00089332 1e-05 0.0212992 0.000891797 1e-05 0.0214378 0.000890256 1e-05 0.0215763 0.000888709
1e-05 0.0217149 0.000887155 1e-05 0.0218535 0.000885593 1e-05 0.0219931 0.000884021 1e-05
0.0221328 0.000882432 1e-05 0.0222724 0.000880836 1e-05 0.0224121 0.000879233 1e-05 0.0225517
0.000877624 1e-05 0.0226925 0.000876 1e-05 0.0228332 0.000874361 1e-05 0.022974 0.000872716
1e-05 0.0231147 0.000871064 1e-05 0.0232555 0.000869404 1e-05 0.0233973 0.000867728 1e-05
0.0235392 0.00086604 1e-05 0.023681 0.000864345 1e-05 0.0238229 0.000862643 1e-05 0.0239647
0.000860933 1e-05 0.0241076 0.000859205 1e-05 0.0242506 0.000857466 1e-05 0.0243935 0.00085572
1e-05 0.0245365 0.000853967 1e-05 0.0246794 0.000852205 1e-05 0.0246823 0.00085217 1e-05
0.0246852 0.000852134 1e-05 0.024688 0.000852099 1e-05 0.0246909 0.000852063 1e-05 0.0246938
0.000852028 1e-05 0.0248349 0.00085028 1e-05 0.0249761 0.000848525 1e-05 0.0251173 0.000846762
1e-05 0.0252584 0.000844992 1e-05 0.0253996 0.000843214 1e-05 0.0255448 0.00084138 1e-05
0.02569 0.000839536 1e-05 0.0258351 0.000837684 1e-05 0.0259803 0.000835823 1e-05 0.0261255
0.000833953 1e-05 0.0262718 0.000832068 1e-05 0.0264181 0.000830168 1e-05 0.0265644 0.00082826
1e-05 0.0267107 0.000826343 1e-05 0.026857 0.000824417 1e-05 0.0270044 0.000822477 1e-05
0.0271519 0.00082052 1e-05 0.0272993 0.000818554 1e-05 0.0274468 0.000816579 1e-05 0.0275942
0.000814595 1e-05 0.0277428 0.000812599 1e-05 0.0278914 0.000810582 1e-05 0.0280399 0.000808557
1e-05 0.0281885 0.000806522 1e-05 0.0283371 0.000804477 1e-05 0.0284868 0.000802422 1e-05
0.0286366 0.000800345 1e-05 0.0287863 0.000798257 1e-05 0.0289361 0.000796159 1e-05 0.0290858
0.000794052 1e-05 0.0292367 0.000791936 1e-05 0.0293876 0.000789795 1e-05 0.0295385 0.000787643
1e-05 0.0296894 0.000785481 1e-05 0.0298403 0.000783311 1e-05 0.0299924 0.000781132 1e-05
0.0301445 0.000778927 1e-05 0.0302965 0.000776708 1e-05 0.0304486 0.000774478 1e-05 0.0306007
0.000772243 1e-05 0.030754 0.000769997 1e-05 0.0309072 0.000767725 1e-05 0.0310605 0.000765436
1e-05 0.0312137 0.000763135 1e-05 0.031367 0.000760832 1e-05 0.0315215 0.000758516 1e-05
[...]
POINT_DATA 12050
FIELD attributes 4
age 1 12050 float
-1.26124e-05 -1.0089e-05 -7.56613e-06 -5.04366e-06 -2.52161e-06 0 3.73905e-05 7.47797e-05 0.000112174 0.000149576 0.000186987
0.000225357 0.0002637 0.000302044 0.000340387 0.00037873 0.000415564 0.000452357 0.000489139 0.000525908 0.000562666
0.000597969 0.000633228 0.000668474 0.000703706 0.000738923 0.000772753 0.000806541 0.000840317 0.000874082 0.000907836
0.000940262 0.000972647 0.00100502 0.00103739 0.00106975 0.00110084 0.0011319 0.00116294 0.00119399 0.00122502
0.00125484 0.00128463 0.00131441 0.00134419 0.00137397 0.00140258 0.00143115 0.00145973 0.0014883 0.00151687
0.00154432 0.00157175 0.00159917 0.00162659 0.00165401 0.00168036 0.00170668 0.001733 0.00175931 0.00178563
0.00181092 0.00183619 0.00186145 0.00188671 0.00191198 0.00193625 0.00196051 0.00198476 0.00200902 0.00203327
0.00205658 0.00207986 0.00210315 0.00212643 0.00214972 0.0021721 0.00219446 0.00221682 0.00223918 0.00226154
0.00228303 0.0023045 0.00232597 0.00234744 0.00236891 0.00238955 0.00241017 0.00243079 0.00245141 0.00247203
0.00249185 0.00251165 0.00253145 0.00255125 0.00257105 0.00258428 0.0025975 0.00261072 0.00262394 0.00263716
0.0026505 0.00266382 0.00267714 0.00269047 0.00270379 0.00271723 0.00273065 0.00274407 0.00275748 0.0027709
0.00278444 0.00279795 0.00281146 0.00282497 0.00283848 0.00285213 0.00286575 0.00287936 0.00289298 0.0029066
0.00292036 0.0029341 0.00294783 0.00296157 0.00297531 0.00298921 0.00300307 0.00301693 0.0030308 0.00304468
0.00305872 0.00307272 0.00308672 0.00310073 0.00311475 0.00312895 0.00314309 0.00315725 0.00317141 0.00318558
0.00319994 0.00321425 0.00322856 0.00324287 0.00325721 0.00327175 0.00328622 0.0033007 0.00331519 0.0033297
0.00334441 0.00335907 0.00337372 0.00338838 0.00340307 0.00341797 0.00343281 0.00344764 0.00346248 0.00347737
0.00349245 0.00350749 0.0035225 0.00353753 0.00355261 0.00356789 0.00358312 0.00359833 0.00361355 0.00362883
0.00364431 0.00365975 0.00367515 0.00369057 0.00370605 0.00372174 0.00373738 0.00375299 0.00376861 0.0037843
0.00380019 0.00381604 0.00383185 0.00384768 0.00386358 0.00387968 0.00389574 0.00391177 0.00392781 0.00394393
0.00396024 0.00397652 0.00399276 0.00400902 0.00402535 0.00404188 0.00405838 0.00407484 0.00409132 0.00410787
0.00412462 0.00414134 0.00415803 0.00417474 0.00419151 0.00420848 0.00422542 0.00424234 0.00425927 0.00427627
0.00429345 0.00431062 0.00432776 0.00434493 0.00436214 0.00437955 0.00439695 0.00441432 0.00443171 0.00444915
0.00446679 0.00448441 0.00450201 0.00451963 0.00453731 0.00455517 0.00457302 0.00459085 0.0046087 0.0046266
0.00464469 0.00466277 0.00468084 0.00469892 0.00471705 0.00473537 0.00475368 0.00477198 0.00479031 0.00480866
0.00482721 0.00484575 0.0048643 0.00488286 0.00490145 0.00492023 0.004939 0.00495778 0.00497657 0.00499539
0.0050144 0.0050334 0.00505241 0.00507144 0.00509049 0.00510973 0.00512897 0.00514822 0.00516749 0.00518677
0.00520625 0.00522572 0.00524521 0.00526471 0.00528423 0.00530394 0.00532365 0.00534337 0.00536311 0.00538287
0.0054028 0.00542275 0.00544271 0.00546268 0.00548267 0.00550284 0.00552302 0.00554321 0.00556342 0.00558365
0.00560406 0.00562448 0.00564491 0.00566536 0.00568583 0.00570647 0.00572712 0.00574779 0.00576848 0.00578918
0.00581005 0.00583095 0.00585185 0.00587277 0.00589371 0.00589413 0.00589455 0.00589497 0.0058954 0.00589582
0.00591651 0.00593722 0.00595794 0.00597868 0.00599943 0.00602078 0.00604215 0.00606354 0.00608494 0.00610636
0.00612796 0.00614957 0.0061712 0.00619284 0.0062145 0.00623633 0.00625819 0.00628006 0.00630194 0.00632384
0.00634592 0.00636802 0.00639013 0.00641226 0.0064344 0.00645672 0.00647906 0.00650141 0.00652378 0.00654617
0.00656874 0.00659132 0.00661392 0.00663653 0.00665916 0.00668197 0.0067048 0.00672764 0.0067505 0.00677338
0.00679643 0.0068195 0.00684259 0.0068657 0.00688882 0.00691212 0.00693544 0.00695878 0.00698213 0.0070055
0.00702904 0.00705261 0.00707619 0.00709979 0.0071234 0.0071472 0.00717102 0.00719486 0.00721871 0.00724257
0.00726662 0.00729069 0.00731477 0.00733887 0.00736298 0.00738728 0.00741159 0.00743593 0.00746028 0.00748464
0.00750919 0.00753377 0.00755836 0.00758297 0.00760758 0.00763239 0.00765722 0.00768207 0.00770693 0.0077318
0.00775686 0.00778194 0.00780705 0.00783216 0.00785728 0.00788261 0.00790796 0.00793333 0.00795871 0.00798409
0.00800968 0.00803529 0.00806092 0.00808655 0.0081122 0.00813805 0.00816392 0.00818981 0.00821571 0.00824162
0.00826774 0.00829388 0.00832004 0.0083462 0.00837238 0.00839877 0.00842519 0.00845161 0.00847805 0.0085045
0.00853117 0.00855786 0.00858455 0.00861127 0.00863799 0.00866493 0.00869189 0.00871887 0.00874586 0.00877286
0.00880008 0.00882731 0.00885457 0.00888183 0.00890911 0.00893359 0.00895808 0.00898258 0.00900709 0.00903039
0.00903368 0.00903696 0.00904025 0.00904353 0.00904682 0.00907461 0.00910243 0.00913025 0.0091581 0.00918596
0.00921405 0.00924216 0.00927028 0.00929842 0.00932658 0.00935497 0.00938338 0.00941181 0.00944025 0.00946871
0.0094974 0.00952611 0.00955485 0.0095836 0.00961236 0.00964136 0.00967039 0.00969944 0.0097285 0.00975758
0.00978689 0.00981623 0.00984559 0.00987498 0.00990437 0.009934 0.00996366 0.00999334 0.010023 0.0100528
0.0100827 0.0101127 0.0101427 0.0101728 0.0102028 0.0102331 0.0102634 0.0102938 0.0103241 0.0103545
0.0103851 0.0104158 0.0104465 0.0104772 0.0105079 0.0105389 0.0105699 0.0106009 0.010632 0.0106631
0.0106944 0.0107258 0.0107572 0.0107886 0.01082 0.0108517 0.0108834 0.0109152 0.0109469 0.0109787
0.0110108 0.0110429 0.011075 0.0111071 0.0111393 0.0111718 0.0112042 0.0112367 0.0112693 0.0113018
0.0113346 0.0113675 0.0114004 0.0114333 0.0114662 0.0114807 0.0114951 0.0115096 0.0115241 0.0115381
0.011557 0.0115759 0.0115948 0.0116137 0.0116327 0.0116663 0.0116999 0.0117336 0.0117673 0.0118011
0.0118352 0.0118692 0.0119034 0.0119375 0.0119717 0.0120062 0.0120407 0.0120753 0.0121098 0.0121445
0.0121794 0.0122144 0.0122494 0.0122844 0.0123195 0.0123549 0.0123903 0.0124258 0.0124613 0.0124968
0.0125327 0.0125686 0.0126045 0.0126405 0.0126765 0.0127129 0.0127493 0.0127857 0.0128222 0.0128587
0.0128955 0.0129324 0.0129693 0.0130063 0.0130434 0.0130807 0.0131181 0.0131556 0.0131931 0.0132306
0.0132685 0.0133064 0.0133444 0.0133825 0.0134205 0.0134292 0.0134378 0.0134465 0.0134551 0.0134637
0.0134935 0.0135234 0.0135533 0.0135833 0.0136133 0.0136523 0.0136913 0.0137304 0.0137695 0.0138087
0.0138483 0.0138879 0.0139276 0.0139673 0.0140071 0.0140472 0.0140874 0.0141277 0.014168 0.0142084
0.0142492 0.01429 0.0143308 0.0143718 0.0144128 0.0144542 0.0144956 0.0145372 0.0145787 0.0146204
0.0146624 0.0147045 0.0147467 0.014789 0.0148313 0.014874 0.0149168 0.0149597 0.0150026 0.0150457
0.0150729 0.0151001 0.0151273 0.0151546 0.0151808 0.0151973 0.0152139 0.0152305 0.0152471 0.0152637
0.0153079 0.0153521 0.0153964 0.0154408 0.0154853 0.0155302 0.0155752 0.0156203 0.0156654 0.0157107
0.0157564 0.0158022 0.015848 0.015894 0.01594 0.0159865 0.0160331 0.0160798 0.0161266 0.0161735
0.0162208 0.0162682 0.0163158 0.0163634 0.0164112 0.0164594 0.0165077 0.0165562 0.0166047 0.0166534
0.016679 0.0167046 0.0167302 0.0167558 0.0167806 0.0168046 0.0168285 0.0168524 0.0168764 0.0169005
0.0169506 0.0170008 0.0170511 0.0171016 0.0171522 0.0172032 0.0172545 0.0173058 0.0173573 0.0174089
0.017461 0.0175133 0.0175657 0.0176182 0.0176709 0.0177241 0.0177774 0.0178309 0.0178845 0.0179383
0.0179927 0.0180472 0.0181018 0.0181566 0.0182116 0.0182327 0.0182538 0.0182749 0.018296 0.0183166
0.0183514 0.0183863 0.0184212 0.0184562 0.0184912 0.018548 0.018605 0.0186621 0.0187194 0.0187769
0.018835 0.0188932 0.0189517 0.0190103 0.0190692 0.0191286 0.0191882 0.019248 0.019308 0.0193682
0.0194292 0.0194903 0.0195516 0.0196131 0.0196749 0.0197049 0.019735 0.0197651 0.0197953 0.0198246
0.0198574 0.0198904 0.0199233 0.0199564 0.0199895 0.0200535 0.0201178 0.0201823 0.020247 0.020312
0.0203777 0.0204436 0.0205097 0.0205761 0.0206427 0.0207102 0.020778 0.020846 0.0209142 0.0209828
0.0210521 0.0211216 0.0211915 0.0212616 0.021332 0.0213322 0.0213324 0.0213326 0.0213328 0.021333
0.0214041 0.0214756 0.0215473 0.0216193 0.0216917 0.021765 0.0218387 0.0219126 0.0219869 0.0220616
0.0221371 0.022213 0.0222892 0.0223657 0.0224427 0.0225206 0.0225988 0.0226774 0.0227563 0.0228357
0.022842 0.0228484 0.0228548 0.0228611 0.0228674 0.0229416 0.023016 0.0230908 0.0231659 0.0232414
0.0233243 0.0234076 0.0234913 0.0235754 0.02366 0.0237456 0.0238316 0.0239181 0.024005 0.0240924
0.0241649 0.0242376 0.0243107 0.024384 0.0244544 0.0244715 0.0244886 0.0245058 0.0245229 0.0245401
0.0246317 0.0247238 0.0248163 0.0249094 0.0250031 0.0250979 0.0251932 0.025289 0.0253853 0.0254823
0.0255805 0.0256793 0.0257786 0.0258785 0.0259791 0.0260077 0.0260364 0.0260651 0.0260938 0.0261222
0.0261961 0.0262703 0.0263448 0.0264196 0.0264948 0.0266004 0.0267066 0.0268135 0.0269209 0.0270292
0.0271387 0.0272489 0.0273598 0.0274713 0.0275837 0.0276471 0.0277107 0.0277746 0.0278386 0.0279015
0.0279532 0.0280049 0.0280569 0.0281089 0.0281611 0.0282794 0.0283983 0.028518 0.0286385 0.0287598
0.0288827 0.0290064 0.029131 0.0292562 0.0293824 0.0294712 0.0295603 0.0296499 0.0297398 0.0298284
0.0298688 0.0299092 0.0299497 0.0299903 0.030031 0.0301639 0.0302978 0.0304324 0.0305679 0.0307043
0.0308425 0.0309815 0.0311215 0.0312624 0.0314042 0.0315121 0.0316206 0.0317296 0.0318391 0.0319479
0.0319848 0.0320217 0.0320587 0.0320957 0.0321328 0.0322822 0.0324326 0.032584 0.0327363 0.0328896
0.0330449 0.0332013 0.0333588 0.0335173 0.0336767 0.033775 0.0338737 0.0339728 0.0340723 0.0341721
0.0342365 0.0343011 0.0343658 0.0344306 0.0344956 0.0346635 0.0348325 0.0350025 0.0351736 0.0353456
0.0355197 0.035695 0.0358714 0.0360489 0.0362272 0.0363018 0.0363765 0.0364515 0.0365266 0.0366025
0.0367099 0.0368177 0.0369258 0.0370343 0.0371431 0.0373303 0.0375186 0.0377081 0.0378986 0.0380898
0.0382836 0.0384786 0.0386747 0.0388718 0.0390696 0.0391162 0.039163 0.0392098 0.0392566 0.0393039
0.0394584 0.0396136 0.0397693 0.0399257 0.0400823 0.040289 0.0404967 0.0407056 0.0409154 0.0411256
0.0413386 0.0415528 0.0417679 0.0419839 0.0422004 0.0422328 0.0422652 0.0422976 0.04233 0.0423628
0.0425499 0.0427377 0.0429262 0.0431152 0.0433045 0.0435293 0.0437551 0.0439818 0.0442093 0.0444369
0.044667 0.0448981 0.0451299 0.0453625 0.0455951 0.0456558 0.0457166 0.0457774 0.0458382 0.0459003
0.0460753 0.0462507 0.0464265 0.0466025 0.0467786 0.0470186 0.0472594 0.0475008 0.0477427 0.0479845
0.0482285 0.0484732 0.0487186 0.0489642 0.0492097 0.0493836 0.0495578 0.0497321 0.0499066 0.050093
0.0501651 0.0502372 0.0503093 0.0503815 0.0504537 0.050705 0.0509567 0.0512086 0.0514608 0.0517126
0.0519667 0.0522211 0.0524759 0.0527307 0.0529851 0.0532414 0.0534981 0.0537549 0.0540117 0.054268
0.0544513 0.0546346 0.054818 0.0550013 0.0551988 0.055271 0.0553432 0.0554155 0.0554876 0.0555598
0.0558198 0.0560798 0.0563396 0.0565993 0.0568585 0.0571194 0.0573804 0.0576412 0.0579018 0.0581617
0.0584233 0.0586849 0.0589463 0.0592073 0.0594677 0.0597297 0.0599917 0.0602533 0.0605145 0.0607751
0.0609384 0.0611017 0.0612647 0.0614276 0.0616025 0.0616982 0.0617939 0.0618895 0.0619851 0.0620805
0.0623424 0.0626038 0.0628647 0.0631252 0.0633849 0.0636461 0.063907 0.0641673 0.0644272 0.0646861
0.0649464 0.0652063 0.0654657 0.0657245 0.0659824 0.0662416 0.0665004 0.0667587 0.0670164 0.0672731
0.0675311 0.0677886 0.0680455 0.0683017 0.068557 0.0688135 0.0690695 0.0693247 0.0695792 0.0698326
0.0699523 0.0700719 0.0701912 0.0703104 0.0704534 0.0705825 0.0707115 0.0708402 0.0709687 0.0710969
0.0713495 0.0716012 0.0718517 0.0721011 0.0723492 0.0725882 0.0728264 0.0730636 0.0732998 0.0735345
0.0737768 0.0740176 0.074257 0.0744949 0.0747311 0.0749751 0.0752175 0.0754584 0.0756976 0.0759351
0.0760561 0.0761767 0.0762969 0.0764166 0.0765475 0.0766669 0.076786 0.0769045 0.0770226 0.0771403
0.0773856 0.0776289 0.0778702 0.0781096 0.0783471 0.0785917 0.0788343 0.0790749 0.0793134 0.0795497
0.0797931 0.0800343 0.0802733 0.0805101 0.0807447 0.080986 0.081225 0.0814618 0.0816962 0.0819286
0.0819753 0.082022 0.0820685 0.082115 0.0821636 0.0823536 0.0825421 0.0827291 0.0829146 0.0830987
0.0833351 0.083569 0.0838005 0.0840295 0.0842564 0.0844895 0.0847201 0.0849483 0.085174 0.0853975
0.0856272 0.0858543 0.0860789 0.0863011 0.086521 0.0867469 0.0869701 0.0871909 0.0874092 0.0876252
0.0878472 0.0880666 0.0882835 0.0884979 0.0887101 0.0887794 0.0888484 0.0889172 0.0889857 0.0890602
0.0892048 0.0893482 0.0894906 0.0896318 0.0897721 0.0899859 0.0901971 0.0904059 0.0906123 0.0908164
0.0910262 0.0912333 0.091438 0.0916402 0.0918404 0.092046 0.0922491 0.0924496 0.0926478 0.092844
0.0930456 0.0932447 0.0934412 0.0936354 0.0938278 0.0940255 0.0942207 0.0944134 0.0946039 0.0947924
0.0949861 0.0951772 0.0953659 0.0955526 0.0957373 0.0959273 0.0961149 0.0963003 0.0964835 0.0966645
0.0968504 0.0970337 0.097215 0.0973943 0.0975718 0.0977544 0.0979347 0.0981123 0.0982873 0.0984597
0.0984991 0.0985383 0.0985775 0.0986166 0.0986473 0.0987847 0.098921 0.0990562 0.0991903 0.0993233
-1.04583e-05 -8.36667e-06 -6.275e-06 -4.18334e-06 -2.09167e-06 0 3.10153e-05 6.20312e-05 9.30508e-05 0.000124075
0.00015511 0.000186928 0.000218747 0.000250571 0.000282403 0.000314247 0.000344834 0.000375426 0.000406024 0.00043663
0.000467248 0.000496657 0.000526071 0.00055549 0.000584916 0.000614353 0.000642627 0.000670903 0.000699184 0.000727471
0.000755766 0.000782937 0.000810111 0.000837287 0.000864469 0.000891656 0.000917762 0.000943869 0.000969979 0.000996092
0.00102221 0.00104729 0.00107237 0.00109745 0.00112253 0.00114761 0.0011717 0.00119578 0.00121987 0.00124396
0.00126804 0.00129117 0.0013143 0.00133743 0.00136055 0.00138368 0.00140589 0.00142809 0.0014503 0.0014725
0.00149471 0.00151602 0.00153734 0.00155866 0.00157997 0.00160129 0.00162176 0.00164222 0.00166268 0.00168315
0.00170361 0.00172326 0.0017429 0.00176254 0.00178218 0.00180183 0.00182068 0.00183954 0.00185839 0.00187725
0.0018961 0.0019142 0.0019323 0.0019504 0.0019685 0.00198659 0.00200396 0.00202133 0.0020387 0.00205607
0.00207344 0.00209011 0.00210679 0.00212346 0.00214013 0.0021568 0.00216793 0.00217905 0.00219018 0.0022013
0.00221243 0.00222364 0.00223485 0.00224606 0.00225727 0.00226847 0.00227977 0.00229106 0.00230235 0.00231364
0.00232493 0.00233631 0.00234768 0.00235906 0.00237043 0.0023818 0.00239327 0.00240473 0.00241618 0.00242764
0.0024391 0.00245064 0.00246219 0.00247373 0.00248527 0.00249681 0.00250845 0.00252008 0.0025317 0.00254333
0.00255496 0.00256667 0.00257839 0.0025901 0.00260182 0.00261353 0.00262534 0.00263714 0.00264894 0.00266074
0.00267254 0.00268444 0.00269633 0.00270822 0.00272011 0.002732 0.00274398 0.00275596 0.00276794 0.00277992
0.0027919 0.00280397 0.00281605 0.00282812 0.00284018 0.00285225 0.00286442 0.00287658 0.00288874 0.0029009
0.00291307 0.00292532 0.00293758 0.00294983 0.00296208 0.00297434 0.00298669 0.00299903 0.00301138 0.00302373
0.00303607 0.00304852 0.00306096 0.0030734 0.00308584 0.00309828 0.00311082 0.00312336 0.00313589 0.00314843
0.00316096 0.00317359 0.00318623 0.00319886 0.00321149 0.00322412 0.00323685 0.00324958 0.00326231 0.00327503
0.00328776 0.00330059 0.00331341 0.00332624 0.00333906 0.00335188 0.00336481 0.00337773 0.00339065 0.00340357
0.0034165 0.00342952 0.00344254 0.00345556 0.00346858 0.0034816 0.00349472 0.00350785 0.00352097 0.00353409
0.00354721 0.00354919 0.00355116 0.00355314 0.00355511 0.00355708 0.00356833 0.00357958 0.00359082 0.00360207
0.00361331 0.00362664 0.00363996 0.00365328 0.0036666 0.00367992 0.00369335 0.00370677 0.0037202 0.00373362
0.00374705 0.00376058 0.0037741 0.00378763 0.00380115 0.00381468 0.00382832 0.00384195 0.00385558 0.00386921
0.00388284 0.00389658 0.00391031 0.00392405 0.00393778 0.00395152 0.00396537 0.00397921 0.00399305 0.00400689
0.00402074 0.00403469 0.00404864 0.00406259 0.00407654 0.00409048 0.00410454 0.0041186 0.00413265 0.00414671
0.00416076 0.00417494 0.0041891 0.00420327 0.00421743 0.0042316 0.00424588 0.00426016 0.00427443 0.00428871
0.00430299 0.00431738 0.00433177 0.00434616 0.00436054 0.00437493 0.00438944 0.00440394 0.00441844 0.00443293
0.00444744 0.00446206 0.00447667 0.00449128 0.00450589 0.0045205 0.00453524 0.00454998 0.0045647 0.00457943
0.00459417 0.00460902 0.00462387 0.00463871 0.00465356 0.00466841 0.00468338 0.00469835 0.00471331 0.00472827
0.00474324 0.00475833 0.00477342 0.0047885 0.00480358 0.00481866 0.00483388 0.00484909 0.00486429 0.0048795
0.00489471 0.00491005 0.00492538 0.00494071 0.00495603 0.00497137 0.00498683 0.00500229 0.00501774 0.0050332
0.00504866 0.00506425 0.00507983 0.00509541 0.00511099 0.00512658 0.00514229 0.005158 0.00517371 0.00518943
0.00520514 0.00522099 0.00523683 0.00525267 0.00526852 0.00528436 0.00530034 0.00531632 0.00533229 0.00534827
0.00536425 0.00538037 0.00539648 0.00541259 0.0054287 0.00544482 0.00546107 0.00547732 0.00549357 0.00550982
0.00552608 0.00554247 0.00555885 0.00557524 0.00559163 0.00560803 0.00561713 0.00562624 0.00563535 0.00564446
0.00565347 0.00566091 0.00566836 0.00567581 0.00568326 0.00569071 0.00570738 0.00572405 0.00574073 0.00575741
0.0057741 0.00579092 0.00580774 0.00582457 0.0058414 0.00585823 0.00587521 0.00589218 0.00590916 0.00592614
0.00594313 0.00596026 0.00597739 0.00599452 0.00601165 0.00602879 0.00604608 0.00606336 0.00608065 0.00609794
0.00611523 0.00613269 0.00615013 0.00616758 0.00618503 0.00620249 0.00622011 0.00623772 0.00625532 0.00627293
0.00629056 0.00630834 0.00632612 0.00634388 0.00636166 0.00637945 0.00639741 0.00641535 0.00643329 0.00645123
0.00646919 0.00648733 0.00650545 0.00652355 0.00654167 0.00655981 0.00657812 0.00659641 0.0066147 0.00663299
0.00665131 0.0066698 0.00668827 0.00670674 0.00672521 0.0067437 0.00676237 0.00678103 0.00679967 0.00681833
0.00683701 0.00685586 0.00687471 0.00689355 0.00691239 0.00693126 0.00695031 0.00696934 0.00698837 0.0070074
0.00702646 0.0070457 0.00706493 0.00708415 0.00710339 0.00712264 0.00714208 0.0071615 0.00718093 0.00720037
0.00721982 0.00723945 0.00725907 0.0072787 0.00729834 0.007318 0.00733783 0.00735766 0.00737751 0.00739736
0.00741722 0.00743726 0.0074573 0.00747736 0.00749742 0.0075175 0.0075312 0.00754491 0.00755863 0.00757235
0.00758571 0.00759233 0.00759896 0.00760559 0.00761223 0.00761886 0.00763932 0.0076598 0.00768029 0.00770079
0.00772131 0.00774201 0.00776271 0.00778342 0.00780415 0.00782489 0.00784582 0.00786676 0.0078877 0.00790866
0.00792964 0.0079508 0.00797197 0.00799314 0.00801434 0.00803555 0.00805696 0.00807837 0.00809978 0.00812122
0.00814267 0.00816433 0.00818598 0.00820764 0.00822931 0.00825102 0.00827292 0.00829483 0.00831673 0.00833866
0.00836062 0.00838278 0.00840494 0.00842711 0.00844929 0.00847151 0.00849393 0.00851635 0.00853878 0.00856122
0.0085837 0.00860638 0.00862907 0.00865177 0.00867448 0.00869723 0.00872018 0.00874314 0.00876611 0.0087891
0.00881212 0.00883535 0.00885859 0.00888185 0.00890512 0.00892842 0.00895193 0.00897545 0.00899899 0.00902255
0.00904614 0.00906993 0.00909375 0.00911758 0.00914144 0.00916532 0.00917674 0.00918817 0.0091996 0.00921103
0.00922222 0.00923497 0.00924773 0.00926049 0.00927326 0.00928604 0.00931044 0.00933486 0.0093593 0.00938377
0.00940826 0.00943297 0.00945771 0.00948247 0.00950725 0.00953207 0.0095571 0.00958216 0.00960724 0.00963235
0.00965749 0.00968286 0.00970825 0.00973366 0.0097591 0.00978457 0.00981028 0.009836 0.00986175 0.00988753
0.00991334 0.0099394 0.00996547 0.00999157 0.0100177 0.0100439 0.0100703 0.0100967 0.0101232 0.0101496
0.0101762 0.0102029 0.0102297 0.0102565 0.0102834 0.0103103 0.0103374 0.0103646 0.0103918 0.010419
0.0104463 0.0104738 0.0105013 0.0105289 0.0105565 0.0105842 0.0105974 0.0106107 0.0106239 0.0106372
0.0106501 0.0106649 0.0106797 0.0106945 0.0107093 0.0107241 0.0107524 0.0107808 0.0108091 0.0108376
0.010866 0.0108947 0.0109235 0.0109523 0.0109811 0.01101 0.0110392 0.0110684 0.0110976 0.0111269
0.0111562 0.0111858 0.0112154 0.0112451 0.0112748 0.0113046 0.0113346 0.0113647 0.0113948 0.011425