# Selection     : all 
# Volume        : 1.45160395e-05
# Time          	min(p)	min(epsilon)	min(k)
0               	0.00000000e+00	1.48550000e+01	3.75000000e-01
1               	8.99817343e+00	1.27191580e+01	2.92891136e-01
2               	-1.13005733e+02	1.14409056e+01	9.25343047e-02
3               	-1.17753123e+02	4.48864592e-01	3.23635813e-02
4               	-8.96215092e+01	3.88650472e+00	3.07408567e-02
5               	-6.73920533e+01	4.78302282e+00	4.03370359e-02
6               	-5.48278063e+01	5.18724003e+00	5.12770913e-02
7               	-4.40984097e+01	5.46622623e+00	5.80936373e-02
8               	-3.57484407e+01	6.07996791e+00	6.59095390e-02
9               	-2.74432701e+01	6.34985538e+00	7.03933598e-02
10              	-2.00409835e+01	5.99553476e+00	7.19821931e-02
11              	-1.35351637e+01	5.73088551e+00	7.20511860e-02
12              	-9.99809276e+00	5.53530092e+00	7.24930150e-02
13              	-1.16225007e+01	5.41745066e+00	7.00649055e-02
14              	-1.32266909e+01	5.36458024e+00	6.68835794e-02
15              	-1.48468704e+01	5.37274730e+00	6.31629045e-02
16              	-1.63043945e+01	5.43122626e+00	5.83793444e-02
17              	-1.77172348e+01	5.51910717e+00	5.61183734e-02
18              	-1.90320963e+01	5.63789277e+00	5.28642895e-02
19              	-2.02303534e+01	5.77900556e+00	4.67065436e-02
20              	-2.13702329e+01	5.40590892e+00	4.09176387e-02
21              	-2.24223318e+01	5.05384833e+00	3.77251584e-02
22              	-2.33830585e+01	4.87295685e+00	3.47390812e-02
23              	-2.42613538e+01	4.51194804e+00	3.06969069e-02
24              	-2.50482185e+01	4.05175197e+00	2.65909468e-02
25              	-2.57486206e+01	3.67962110e+00	2.35680648e-02
26              	-2.63607660e+01	3.26610273e+00	2.07758573e-02
27              	-2.68762973e+01	2.75614026e+00	1.70723627e-02
28              	-2.72962448e+01	2.27755683e+00	1.39867294e-02
29              	-2.76540782e+01	1.93157994e+00	1.22807196e-02
30              	-2.79378877e+01	1.67315462e+00	1.07518697e-02
31              	-2.80809410e+01	1.45894775e+00	9.80907055e-03
32              	-2.81726148e+01	1.32069775e+00	9.07904863e-03
33              	-2.82086490e+01	1.23896382e+00	8.24332813e-03
34              	-2.81357485e+01	1.15656444e+00	7.49385940e-03
35              	-2.79740264e+01	1.07913939e+00	6.87193644e-03
36              	-2.78269074e+01	1.02361084e+00	6.31543850e-03
37              	-2.76209882e+01	9.86292971e-01	6.32427424e-03
38              	-2.73399354e+01	9.82850432e-01	6.42911421e-03
39              	-2.70110441e+01	9.90646110e-01	6.61871510e-03
40              	-2.66645976e+01	1.00308768e+00	6.70270258e-03
41              	-2.63291359e+01	1.02207984e+00	6.88096577e-03
42              	-2.59682619e+01	1.05610202e+00	7.15779855e-03
43              	-2.55601943e+01	1.09666732e+00	7.48395142e-03
44              	-2.51399047e+01	1.15289766e+00	7.82832597e-03
45              	-2.47411914e+01	1.22023534e+00	8.09058879e-03
46              	-2.43412879e+01	1.28066704e+00	8.31636100e-03
47              	-2.39322092e+01	1.34001832e+00	8.68109031e-03
48              	-2.35244277e+01	1.39343083e+00	9.14592700e-03
49              	-2.31228504e+01	1.45023658e+00	9.58112100e-03
50              	-2.27237039e+01	1.51059120e+00	9.99005852e-03
51              	-2.23318515e+01	1.57164877e+00	1.03152474e-02
52              	-2.19466247e+01	1.63632657e+00	1.06776811e-02
53              	-2.15662987e+01	1.69435253e+00	1.09623047e-02
54              	-2.11966044e+01	1.74620454e+00	1.12237472e-02
55              	-2.08308270e+01	1.79497116e+00	1.14232647e-02
56              	-2.04777287e+01	1.83876394e+00	1.15269299e-02
57              	-2.01194125e+01	1.87658110e+00	1.16476155e-02
58              	-1.97709755e+01	1.91597058e+00	1.17676264e-02
59              	-1.94279798e+01	1.95187076e+00	1.18317023e-02
60              	-1.90900670e+01	1.98205452e+00	1.19064002e-02
61              	-1.87582924e+01	2.01104275e+00	1.19432692e-02
62              	-1.84262489e+01	2.03874540e+00	1.19757577e-02
63              	-1.80975653e+01	2.06500522e+00	1.20350705e-02
64              	-1.77696389e+01	2.09230093e+00	1.21089427e-02
65              	-1.74473924e+01	2.12197347e+00	1.21969336e-02
66              	-1.71261757e+01	2.15222446e+00	1.23180049e-02
67              	-1.68030438e+01	2.17986430e+00	1.24561566e-02
68              	-1.64803094e+01	2.20531282e+00	1.25923030e-02
69              	-1.61579441e+01	2.23330574e+00	1.27619064e-02
70              	-1.58340507e+01	2.25794525e+00	1.29232466e-02
71              	-1.55096948e+01	2.28518584e+00	1.30792668e-02
72              	-1.51842270e+01	2.31534213e+00	1.32407826e-02
73              	-1.48576573e+01	2.33289606e+00	1.33247894e-02
74              	-1.45172107e+01	2.34226515e+00	1.33758938e-02
75              	-1.41732198e+01	2.35816433e+00	1.34742990e-02
76              	-1.38338530e+01	2.36727907e+00	1.35232505e-02
77              	-1.34916786e+01	2.37178084e+00	1.35448291e-02
78              	-1.31432121e+01	2.38247288e+00	1.35345690e-02
79              	-1.27906003e+01	2.37014269e+00	1.33736123e-02
80              	-1.24295407e+01	2.35007356e+00	1.32706216e-02
81              	-1.20575709e+01	2.35210625e+00	1.33278874e-02
82              	-1.16805721e+01	2.35379299e+00	1.33512026e-02
83              	-1.12987112e+01	2.34972366e+00	1.33250114e-02
84              	-1.09066187e+01	2.35202598e+00	1.32213249e-02
85              	-1.05100950e+01	2.32429685e+00	1.29245688e-02
86              	-1.01110020e+01	2.28326618e+00	1.27158633e-02
87              	-9.76967763e+00	2.27311979e+00	1.27164570e-02
88              	-9.78267606e+00	2.26819451e+00	1.26883279e-02
89              	-9.79784868e+00	2.25484612e+00	1.26303031e-02
90              	-9.81429788e+00	2.25716855e+00	1.26052996e-02
91              	-9.83561241e+00	2.24483431e+00	1.24490607e-02
92              	-9.87101682e+00	2.22278681e+00	1.23039615e-02
93              	-9.89858572e+00	2.21269663e+00	1.21874170e-02
94              	-9.92032761e+00	2.19061845e+00	1.19706578e-02
95              	-9.93073527e+00	2.16051723e+00	1.18013528e-02
96              	-9.93010657e+00	2.15069824e+00	1.17688492e-02
97              	-9.91218037e+00	2.14479770e+00	1.17241077e-02
98              	-9.89545226e+00	2.13680080e+00	1.16706352e-02
99              	-9.86199361e+00	2.13573840e+00	1.15347783e-02
100             	-9.83666598e+00	2.10566558e+00	1.11920538e-02
101             	-9.77465855e+00	2.05995277e+00	1.09144463e-02
102             	-9.74258810e+00	2.03732824e+00	1.08082589e-02
103             	-9.69271154e+00	2.01957402e+00	1.06834908e-02
104             	-9.63846488e+00	2.00077043e+00	1.05775272e-02
105             	-9.60297650e+00	1.98931115e+00	1.05158199e-02
106             	-9.55038810e+00	1.97935315e+00	1.04536354e-02
107             	-9.50671723e+00	1.97163631e+00	1.04027226e-02
108             	-9.44950566e+00	1.96390671e+00	1.03378689e-02
109             	-9.41350154e+00	1.95605625e+00	1.02440426e-02
110             	-9.34507920e+00	1.93952710e+00	1.00817673e-02
111             	-9.30856186e+00	1.91842258e+00	9.90811443e-03
112             	-9.22753599e+00	1.89445678e+00	9.73752831e-03
113             	-9.16944538e+00	1.87399139e+00	9.60989755e-03
114             	-9.10700095e+00	1.85734707e+00	9.51017404e-03
115             	-9.00549395e+00	1.84404070e+00	9.41096018e-03
116             	-8.91294456e+00	1.83090803e+00	9.19058536e-03
117             	-8.81030844e+00	1.78969064e+00	8.76531280e-03
118             	-8.69596657e+00	1.73027884e+00	8.37164545e-03
119             	-8.56220569e+00	1.68130896e+00	8.14888482e-03
120             	-8.41817340e+00	1.65496115e+00	8.05467614e-03
121             	-8.26657955e+00	1.64046055e+00	7.96478959e-03
122             	-8.10712212e+00	1.62379032e+00	7.84911111e-03
123             	-7.95494663e+00	1.60748731e+00	7.75049281e-03
124             	-7.79575044e+00	1.59507283e+00	7.63744600e-03
125             	-7.62166566e+00	1.57421268e+00	7.44285718e-03
126             	-7.43955164e+00	1.54424724e+00	7.23417903e-03
127             	-7.24612097e+00	1.51590273e+00	7.07441187e-03
128             	-7.06617433e+00	1.49393311e+00	6.94371880e-03
129             	-6.88054245e+00	1.47261675e+00	6.79915533e-03
130             	-6.69131297e+00	1.45029215e+00	6.66160230e-03
131             	-6.51345310e+00	1.43203609e+00	6.53255328e-03
132             	-6.35429703e+00	1.40975596e+00	6.35682916e-03
133             	-6.18208724e+00	1.38069256e+00	6.16116751e-03
134             	-6.02756596e+00	1.35119700e+00	5.99451130e-03
135             	-5.88294724e+00	1.32655658e+00	5.87165798e-03
136             	-5.74571124e+00	1.30916085e+00	5.75303868e-03
137             	-5.62149980e+00	1.28671169e+00	5.56982926e-03
138             	-5.50742929e+00	1.25327740e+00	5.35353228e-03
139             	-5.40811650e+00	1.22020548e+00	5.17870310e-03
140             	-5.31905335e+00	1.19239071e+00	5.04208429e-03
141             	-5.24563425e+00	1.16976764e+00	4.93578910e-03
142             	-5.17675459e+00	1.15228805e+00	4.85174087e-03
143             	-5.12011234e+00	1.13803213e+00	4.77763741e-03
144             	-5.06958542e+00	1.12598793e+00	4.68613481e-03
145             	-5.02854563e+00	1.10728333e+00	4.53472105e-03
146             	-4.99234405e+00	1.07813749e+00	4.35086114e-03
147             	-4.96453711e+00	1.04751083e+00	4.19364095e-03
148             	-4.94303637e+00	1.02042598e+00	4.06703885e-03
149             	-4.92848805e+00	9.98019422e-01	3.97017855e-03
150             	-4.91867622e+00	9.80977219e-01	3.89539135e-03
151             	-4.91404763e+00	9.67361819e-01	3.83223837e-03
152             	-4.91422659e+00	9.56306592e-01	3.76597210e-03
153             	-4.91854285e+00	9.42216848e-01	3.66642545e-03
154             	-4.92690330e+00	9.21853581e-01	3.54323561e-03
155             	-4.93877877e+00	8.99564964e-01	3.42779269e-03
156             	-4.95398485e+00	8.77639028e-01	3.32250588e-03
157             	-4.97157951e+00	8.57389042e-01	3.23421214e-03
158             	-4.99197647e+00	8.40701640e-01	3.16206872e-03
159             	-5.01803823e+00	8.26670304e-01	3.10000202e-03
160             	-5.04786031e+00	8.14830481e-01	3.03752964e-03
161             	-5.08088552e+00	8.00984098e-01	2.95153342e-03
162             	-5.11435914e+00	7.82686093e-01	2.85045964e-03
163             	-5.15490138e+00	7.62487701e-01	2.75042585e-03
164             	-5.19523396e+00	7.42105507e-01	2.66067545e-03
165             	-5.24372745e+00	7.23992629e-01	2.58483642e-03
166             	-5.29739867e+00	7.07531203e-01	2.50945301e-03
167             	-5.34133767e+00	6.91194309e-01	2.43587263e-03
168             	-5.39927804e+00	6.75830353e-01	2.36663820e-03
169             	-5.46317549e+00	6.60868190e-01	2.30286248e-03
170             	-5.52382118e+00	6.47339692e-01	2.24661608e-03
171             	-5.58382105e+00	6.34475335e-01	2.18727411e-03
172             	-5.65854206e+00	6.21018429e-01	2.12756863e-03
173             	-5.73272670e+00	6.08060190e-01	2.07026838e-03
174             	-5.81935295e+00	5.93302971e-01	2.01643119e-03
175             	-5.90669372e+00	5.77874165e-01	1.96845232e-03
176             	-6.00342359e+00	5.64124254e-01	1.91825746e-03
177             	-6.10149876e+00	5.49739279e-01	1.86824482e-03
178             	-6.21903724e+00	5.35406524e-01	1.82143480e-03
179             	-6.33084777e+00	5.21991587e-01	1.77757606e-03
180             	-6.46003032e+00	5.09422433e-01	1.73492362e-03
181             	-6.59380035e+00	4.97198984e-01	1.69386922e-03
182             	-6.71472181e+00	4.85433508e-01	1.65721595e-03
183             	-6.85073252e+00	4.74929316e-01	1.62352470e-03
184             	-6.97839450e+00	4.65273988e-01	1.59128515e-03
185             	-7.09327466e+00	4.56034692e-01	1.56037185e-03
186             	-7.19447206e+00	4.47175477e-01	1.53174035e-03
187             	-7.28880091e+00	4.38970188e-01	1.50322596e-03
188             	-7.36396432e+00	4.30798457e-01	1.47453953e-03
189             	-7.42200111e+00	4.22577427e-01	1.44769275e-03
190             	-7.46273785e+00	4.14883605e-01	1.41989458e-03
191             	-7.48635686e+00	4.06917131e-01	1.39270893e-03
192             	-7.49408029e+00	3.99126195e-01	1.36701158e-03
193             	-7.48817362e+00	3.91761783e-01	1.34127577e-03
194             	-7.47171569e+00	3.84386347e-01	1.31526832e-03
195             	-7.44288659e+00	3.76933062e-01	1.29030769e-03
196             	-7.40860952e+00	3.69779779e-01	1.26744898e-03
197             	-7.36766991e+00	3.63228871e-01	1.24259144e-03
198             	-7.31571606e+00	3.56105131e-01	1.21706204e-03
199             	-7.26551531e+00	3.48788848e-01	1.19352280e-03
200             	-7.20998445e+00	3.42042909e-01	1.16824548e-03
201             	-7.15306144e+00	3.34798871e-01	1.14301122e-03
202             	-7.09818406e+00	3.27567168e-01	1.11972910e-03
203             	-7.03997156e+00	3.20894917e-01	1.09631311e-03
204             	-6.98412355e+00	3.14184302e-01	1.07434428e-03
205             	-6.93124430e+00	3.07888415e-01	1.05411845e-03
206             	-6.87935581e+00	3.02092045e-01	1.03548501e-03
207             	-6.83206614e+00	2.96752023e-01	1.01922036e-03
208             	-6.78814064e+00	2.92090857e-01	1.00192937e-03
209             	-6.74589303e+00	2.87135559e-01	9.83908443e-04
210             	-6.70754518e+00	2.81971075e-01	9.67479464e-04
211             	-6.67417505e+00	2.77262815e-01	9.50798638e-04
212             	-6.64428950e+00	2.72482380e-01	9.34869657e-04
213             	-6.61835037e+00	2.67917411e-01	9.20521385e-04
214             	-6.59674361e+00	2.63805445e-01	9.07516852e-04
215             	-6.57871885e+00	2.60078572e-01	8.95353705e-04
216             	-6.56444031e+00	2.56592825e-01	8.84336761e-04
217             	-6.55385791e+00	2.53435560e-01	8.75259081e-04
218             	-6.54660233e+00	2.50834055e-01	8.65152701e-04
219             	-6.54219430e+00	2.47937742e-01	8.54413352e-04
220             	-6.54116212e+00	2.44860031e-01	8.44906200e-04
221             	-6.54217686e+00	2.42135446e-01	8.34463729e-04
222             	-6.54684249e+00	2.39142815e-01	8.23624038e-04
223             	-6.55416121e+00	2.36036348e-01	8.14173654e-04
224             	-6.56342403e+00	2.33328032e-01	8.03844408e-04
225             	-6.57416638e+00	2.30367849e-01	7.93566355e-04
226             	-6.58527406e+00	2.27422338e-01	7.84112804e-04
227             	-6.59969015e+00	2.24713114e-01	7.74959830e-04
228             	-6.61470371e+00	2.22090031e-01	7.65783526e-04
229             	-6.63100968e+00	2.19460262e-01	7.57772744e-04
230             	-6.64835545e+00	2.17164510e-01	7.50135020e-04
231             	-6.66601050e+00	2.14975671e-01	7.42865717e-04
232             	-6.68398311e+00	2.12892415e-01	7.37117493e-04
233             	-6.70064599e+00	2.11245074e-01	7.30548935e-04
234             	-6.71862256e+00	2.09362640e-01	7.23493387e-04
235             	-6.73653512e+00	2.07340642e-01	7.17489403e-04
236             	-6.75269898e+00	2.05620004e-01	7.10735101e-04
237             	-6.76979451e+00	2.03684339e-01	7.03632154e-04
238             	-6.78470580e+00	2.01648757e-01	6.97647018e-04
239             	-6.79897713e+00	1.99933521e-01	6.90901141e-04
240             	-6.81261899e+00	1.98000270e-01	6.83934535e-04
241             	-6.82444762e+00	1.96003762e-01	6.78154283e-04
242             	-6.83549632e+00	1.94347242e-01	6.71911998e-04
243             	-6.84457216e+00	1.92558312e-01	6.65539817e-04
244             	-6.85284520e+00	1.90732155e-01	6.60337232e-04
245             	-6.85870556e+00	1.89241185e-01	6.54709831e-04
246             	-6.86371977e+00	1.87628469e-01	6.49286885e-04
247             	-6.86686550e+00	1.86074347e-01	6.44451322e-04
248             	-6.86910577e+00	1.84688559e-01	6.40124475e-04
249             	-6.86965594e+00	1.83448559e-01	6.35914323e-04
250             	-6.86922348e+00	1.82242003e-01	6.32307804e-04
251             	-6.86742884e+00	1.81208437e-01	6.29566758e-04
252             	-6.86477765e+00	1.80422901e-01	6.26385194e-04
253             	-6.86095927e+00	1.79511120e-01	6.22984762e-04
254             	-6.85640576e+00	1.78536615e-01	6.20046702e-04
255             	-6.85086654e+00	1.77694618e-01	6.16980079e-04
256             	-6.84480295e+00	1.76815777e-01	6.13511012e-04
257             	-6.83805875e+00	1.75821603e-01	6.10098745e-04
258             	-6.83115032e+00	1.74843707e-01	6.07530763e-04
259             	-6.82347881e+00	1.74107768e-01	6.04073505e-04
260             	-6.81577351e+00	1.73116977e-01	6.00143007e-04
261             	-6.80801229e+00	1.71990565e-01	5.97015940e-04
262             	-6.80013943e+00	1.71094402e-01	5.93242651e-04
